/*--------------------------------*- C++ -*----------------------------------*\
  =========                 |
  \\      /  F ield         | OpenFOAM: The Open Source CFD Toolbox
   \\    /   O peration     | Website:  https://openfoam.org
    \\  /    A nd           | Version:  6
     \\/     M anipulation  |
\*---------------------------------------------------------------------------*/
FoamFile
{
    version     2.0;
    format      ascii;
    class       volVectorField;
    location    "99.7608115061533027";
    object      U;
}
// * * * * * * * * * * * * * * * * * * * * * * * * * * * * * * * * * * * * * //

dimensions      [0 1 -1 0 0 0 0];

internalField   nonuniform List<vector> 
32768
(
(0.00110267 -0.0129173 0.00129424)
(0.00683848 -0.00560682 0.00245149)
(0.00331713 -0.00143741 0.00103864)
(0.0083335 -0.00668092 0.00105446)
(0.00336379 -0.00760059 0.000837847)
(-0.00150767 -0.0067345 -0.00141444)
(-0.00249417 -0.00424476 0.00119758)
(-0.00142113 -0.000969257 0.00681157)
(-0.00319843 0.000697964 0.00627083)
(-0.00403972 -0.00250385 -0.00112711)
(0.00147703 -0.00396255 -0.00714129)
(0.00304965 -0.00593363 -0.00376154)
(0.00698491 0.00130403 0.000875542)
(0.00266159 0.0042823 0.00296895)
(0.00751168 0.00355786 0.00355658)
(0.0010006 0.0046853 0.0106111)
(0.0103224 0.00581418 -0.0023278)
(0.00949748 0.0101852 -0.00914922)
(0.00531523 0.00575269 -0.00668202)
(0.00462243 0.00425955 0.00426404)
(-0.000893317 0.00525657 0.0055195)
(-0.0129617 0.00360383 0.001658)
(-0.00988559 0.00109103 -0.00128994)
(-0.00956366 0.00628892 -0.00567658)
(-0.00649103 0.00658054 -0.00274461)
(-0.00205173 0.00578428 -0.00231125)
(0.00838327 0.00237505 3.26057e-05)
(0.0110867 0.000979712 0.00990426)
(0.013315 0.00298415 0.0106103)
(0.00738203 0.0121348 0.0110248)
(0.00734653 0.00498599 0.0159484)
(0.00434458 0.000344347 0.00513102)
(-0.00247511 -0.014207 -0.00135438)
(0.00194864 -0.00776156 0.00201573)
(0.00260805 0.000339235 -0.000138927)
(0.0055233 -0.00121411 0.000990193)
(-0.00273456 -0.00462834 -9.67691e-05)
(-0.00663679 -0.00518974 -0.00331043)
(-0.0107429 -0.00395832 0.000456585)
(-0.0103602 -0.000140829 0.000818351)
(-0.012751 0.0105379 -0.00468711)
(-0.0106393 0.0107375 -0.00894539)
(-0.00546044 -0.00388011 -0.00750047)
(-0.00593257 -0.00930771 -0.00604585)
(0.00602757 0.00186301 -0.00286454)
(-0.000266392 0.00314133 0.00263023)
(-0.00312718 0.000452712 0.00372837)
(-0.00878958 -0.00176419 0.00977634)
(0.0057135 0.00647484 -0.000445207)
(0.00415179 0.0117745 -0.00998269)
(0.00482747 0.0106891 -0.00267585)
(0.00383211 0.00954985 0.00627466)
(0.00416565 0.0115609 0.00586182)
(-0.00434218 0.00809563 0.00424181)
(-0.000483947 -0.00283123 0.00514311)
(-0.00407537 -0.00449113 0.00280392)
(-6.96999e-05 -0.000703917 -0.00461793)
(-0.00365018 0.00618739 -0.00991572)
(0.00401917 0.00842532 -0.000108897)
(0.00362957 0.000904091 0.0104863)
(0.00140839 0.0113633 0.0103167)
(0.00158811 0.0095441 0.0143834)
(0.00382797 0.00253639 0.00828726)
(0.00113529 -0.00101679 5.25499e-05)
(-0.000925668 -0.0104045 -0.00177293)
(0.00147256 -0.00584352 0.000503373)
(0.0035745 0.000746711 0.00183172)
(0.00325569 0.00379037 0.000889817)
(-0.00295573 -0.00207527 0.00425341)
(-0.00732272 -0.000420606 -0.00045922)
(-0.0104557 0.00584684 0.00179786)
(-0.00914048 0.0051885 -0.000153544)
(-0.00906272 0.000644577 -0.0121868)
(-0.00683594 -0.00604381 -0.00824734)
(-0.00729792 -0.0107693 -0.00708504)
(-0.0107004 -0.0157728 -0.0106513)
(-0.00509649 -0.00317447 -0.0113561)
(-0.00106433 0.00737398 -0.005153)
(-0.0020046 0.00494649 -0.0026297)
(-0.00576085 -0.00106547 -0.0031212)
(-0.00491061 0.00774435 -0.00159048)
(-0.00122929 0.00636561 -0.00136658)
(0.00363824 0.00908656 0.00790884)
(0.00438476 0.00729675 0.0104711)
(0.00934824 0.0110423 0.00849298)
(0.00509604 0.00939757 0.00425485)
(0.00849043 -0.00347999 0.00104499)
(0.00506225 -0.00465938 0.00410313)
(0.00265716 -0.00266389 0.00134925)
(-0.00336584 0.00310649 -0.00858109)
(-0.000351426 0.0113572 -0.00936442)
(0.00203657 0.00219717 0.00600013)
(-0.00113871 0.0033304 0.0110221)
(0.00112275 0.00176099 0.00760369)
(-0.0031248 -0.00165682 -0.0016015)
(-0.00296973 -0.00883716 -0.00117821)
(0.00042583 -0.00791057 -0.00352821)
(-0.000404812 -0.00142438 -0.00989753)
(0.00302069 0.00335551 -0.00225731)
(0.00268188 0.00505257 -0.00520281)
(0.00545937 0.00107189 0.00198044)
(-0.00150573 0.00113563 0.0107301)
(0.00156231 -0.00233501 -0.000429907)
(0.00264414 0.00265148 0.00280685)
(0.00410646 0.00496215 0.00288528)
(0.00635346 0.0048843 0.00495347)
(0.00420266 -0.00245235 0.00247572)
(0.00934291 -0.0117564 -0.0011543)
(-0.00331635 -0.0159334 -0.0080986)
(-0.00378709 -0.00419317 -0.0099664)
(-0.00163449 7.93173e-06 -0.00761274)
(0.00268116 0.0037776 -0.00489156)
(0.000513802 0.0137652 -0.00506833)
(0.000843944 0.00860026 -0.00873884)
(-0.000317522 0.00572064 -0.00295554)
(0.00781084 0.00218264 0.00323821)
(0.0107826 0.00589524 0.00704294)
(0.0138326 0.00489036 0.0024643)
(0.0106436 -0.00780069 -9.60305e-05)
(0.0036523 -0.00695605 0.00182343)
(0.00128149 -0.00160857 -0.00314701)
(-0.00193253 0.00467138 -0.00984814)
(-0.00153311 0.00529483 -0.015004)
(0.00479039 0.00584978 0.00191569)
(0.000665452 0.00279483 0.00630344)
(-0.00353816 0.000619172 0.000585917)
(-0.00241314 -0.00280301 -0.00113905)
(-0.00429124 -0.00684724 -0.00377689)
(-9.41547e-05 -0.00614937 -0.00111278)
(0.000809784 -0.00511406 -0.00775989)
(0.00286442 0.00590361 -0.00381122)
(-0.00131775 0.00834698 -0.00422824)
(0.00268483 0.000184267 -0.00805429)
(0.00635977 -0.00213167 0.00564652)
(0.00196343 0.00252416 0.00742483)
(0.00234694 2.93642e-05 0.00297025)
(0.000475335 -0.000493837 0.00158827)
(0.00343596 -0.00435113 0.00160774)
(0.00649399 -0.00990224 0.00139567)
(0.00607546 -0.00337148 0.00105195)
(0.00638683 0.0103825 -0.00192381)
(-0.000902781 0.00141155 -0.00392338)
(0.00281899 -0.00356762 -0.00231288)
(0.00822331 -0.00620916 0.00096947)
(0.0127383 0.00956708 -0.00176957)
(0.0105893 0.00887423 -0.00843407)
(0.0107002 0.00546808 -0.00907252)
(0.0130886 -0.000929916 -0.00109943)
(0.0104112 0.00253676 0.00513833)
(0.00940867 0.00268362 0.00176392)
(0.00143043 -0.00674358 0.000267865)
(-0.00468223 -0.0077664 0.00114591)
(-0.00406508 -0.000837103 -0.00425522)
(-0.00352062 0.000829067 -0.00836154)
(-0.000935157 0.00534882 -0.000262752)
(-0.000999794 0.00206139 0.00660131)
(-0.00265509 0.00282038 0.00415472)
(-0.00279915 0.0015954 0.00312667)
(-0.00166603 -0.00328238 0.000329175)
(-0.00272343 -0.00603324 -0.00534065)
(0.000323836 -0.00422818 0.000704495)
(0.00109407 -0.00627452 -0.00263797)
(0.00476208 0.0074232 -0.00507414)
(-0.00245911 0.0076197 -0.00133059)
(0.00437273 0.00155418 -0.00295695)
(0.00780895 -0.00437264 0.00165078)
(0.00604571 0.00232883 0.00971682)
(0.00450863 0.00428223 0.0048911)
(-7.5473e-05 0.00144871 -0.000881049)
(-0.00258699 8.57445e-06 -0.00341516)
(-0.00342074 -0.00581784 -0.00124338)
(-0.015284 -0.00958922 -0.00595812)
(-0.0126642 -0.00321967 -0.00699492)
(-0.0092674 -0.000392339 -0.00512165)
(-0.00149403 0.00166595 -0.00485196)
(0.000960154 0.00649619 0.000703636)
(0.00919761 0.0109837 -0.00754375)
(0.00847203 0.00668167 -0.00709757)
(0.00824648 0.00329011 0.00267274)
(0.00548607 0.00472425 0.00269802)
(0.00446749 0.00553959 0.00127101)
(-0.00282925 0.00295111 0.000665783)
(-0.00291039 -0.00740487 0.000835886)
(-0.00984447 -0.0103125 -0.00053251)
(-0.00641407 0.00318286 -0.00158996)
(-0.000456997 0.00363672 -0.0043818)
(-0.00118443 0.00576925 0.00431631)
(0.000235402 0.00408045 0.00498706)
(-0.00104405 0.00280799 0.00590193)
(0.00184034 -0.00181558 0.0058354)
(0.00323292 -0.00261126 -0.00181399)
(0.00120699 -0.00537991 -0.00649104)
(0.00286545 -0.00300744 0.00330369)
(0.00158908 -0.00208011 0.00118263)
(0.00425655 0.00730231 -0.00648237)
(-0.00173572 0.00771131 0.00208477)
(0.00779969 -0.00351463 0.00607149)
(0.00325936 -0.00352205 0.0078351)
(0.000626808 0.00887535 0.0102323)
(0.00371488 0.009261 0.00311681)
(0.00403017 0.007718 0.000970912)
(0.00668646 0.00387289 0.00389974)
(0.00410889 0.00216744 0.00682908)
(0.000903459 0.00414794 -0.00420729)
(-0.00027566 -0.00916704 -0.00417041)
(-0.00124484 -0.0118281 -0.000105134)
(-0.00184213 -0.0109041 0.000355095)
(-0.00226016 -0.00250703 -0.00171277)
(0.000484966 0.00627914 -0.00572439)
(0.00046811 0.00579503 -0.00429903)
(0.00107838 0.00545107 -0.000582363)
(0.00138685 0.00186868 -0.000430275)
(0.00260355 0.00631356 -0.000698789)
(-0.00156939 0.00223454 0.00232959)
(0.00205446 -0.00677464 0.00238189)
(-0.00700897 -0.00909975 -0.00171525)
(-0.008969 -0.006479 -0.00121135)
(-0.00305109 -0.0021157 -0.0011423)
(-0.00246157 -0.00250791 0.000231807)
(0.00333477 -0.000968463 -2.76786e-05)
(0.00340824 2.6567e-06 0.00184233)
(0.0041837 -0.00340556 0.00143851)
(0.00274445 -0.00358815 -0.00712169)
(0.00347905 -0.00413512 -0.00391952)
(-0.0034563 -0.00189666 0.00415685)
(-0.00326235 0.00274335 -0.00325852)
(-0.00247242 0.00963463 -0.00207704)
(-0.00187122 0.00551927 0.000314136)
(0.00477188 0.0108322 -0.00426664)
(0.00484039 0.00560084 0.00223357)
(0.000692324 0.00369183 0.00769641)
(0.00307319 0.00736341 0.00355341)
(0.00501756 0.00826123 0.00276347)
(0.0104247 0.00366791 0.000241339)
(0.00777904 -0.00266193 0.00504592)
(0.00891784 0.000372381 0.00577041)
(0.0122818 -0.000429213 -0.00248631)
(0.00825723 -0.00220959 -0.0027703)
(0.0023238 -0.00310192 0.00291873)
(-0.000540714 -0.0056838 0.00490322)
(-0.00261524 0.000423861 -0.00147696)
(-0.00176074 0.00119432 -0.00553135)
(-0.000798467 -0.000250221 -0.00105194)
(-0.00150342 -0.00371843 0.00297446)
(-0.000600402 0.00155589 0.00178046)
(0.000203808 -0.00082971 0.0028217)
(-0.00338884 -0.00638283 -0.00305536)
(-0.0087697 -0.00197617 -0.00744922)
(-0.00723016 -0.00230536 -0.007908)
(-0.0030984 -0.00166309 -0.0123424)
(-0.00425752 -0.00319125 -0.0127612)
(-0.000790482 -0.00223516 -0.0140469)
(0.00158133 0.000997266 -0.0102903)
(0.000597533 -5.13681e-05 -0.0108147)
(-0.00469767 -0.00434536 -0.00894014)
(0.00350409 -0.00611975 0.00307096)
(-0.00715123 0.00316686 0.000245431)
(-0.00468629 2.63565e-05 -0.00329732)
(-0.00860176 0.00298494 -0.00429043)
(-0.00190159 -0.00723064 -0.00846732)
(-0.00217072 -0.00917454 -0.0095823)
(0.00625383 0.00469161 -0.0103458)
(0.00641071 0.00923617 -0.00390382)
(0.00187239 0.00971269 -0.000655331)
(0.00937572 0.00904769 -0.00381884)
(0.0151724 0.00881864 -0.0116129)
(0.013026 0.00843799 -0.000681493)
(0.00925781 0.00202968 0.00844214)
(0.013143 -0.000198145 -0.00508311)
(0.00907048 -0.000132513 -0.00623714)
(0.00179874 -0.0017141 0.000751766)
(-9.79006e-05 -0.00236096 0.00216786)
(-0.000706444 -0.000135392 0.00347188)
(0.000492543 0.000797834 -0.00352077)
(1.89315e-05 -0.00116656 -0.00041129)
(0.000147567 -0.00588044 0.00329867)
(-0.0031948 -0.00182414 0.00521282)
(-0.00214769 0.000184691 0.00121704)
(-0.0086305 -0.00314653 -0.00920558)
(-0.00631393 -0.00728024 -0.0130197)
(-0.00337741 -0.00771828 -0.0143067)
(-0.00210392 -0.0110545 -0.014691)
(-0.00317147 -0.0131133 -0.0122903)
(-0.00245858 -0.00759631 -0.0138874)
(-0.00302423 -0.0020019 -0.015131)
(-0.00635625 -0.00040796 -0.0103504)
(0.00238178 -0.00371057 0.00334064)
(-0.00707438 -0.00385707 0.00444149)
(-0.00072192 -0.000897382 -0.00228662)
(0.00491106 0.00630291 -0.0105317)
(0.00010496 0.00785735 -0.00763293)
(0.0062748 -0.000968637 -0.0107176)
(-0.00238509 -0.00612866 -0.0144602)
(0.000420277 -0.00783722 -0.0127921)
(0.00227599 0.0085104 -0.011191)
(0.00998783 0.0118837 -0.0151449)
(0.0135579 0.00649573 -0.0100954)
(0.0169218 0.0114397 -0.00893761)
(0.0162608 0.0109203 -0.00619282)
(0.0130699 0.00435523 0.005753)
(0.0142818 0.00374342 0.00645413)
(0.0161914 0.00191211 -0.000309764)
(0.0108931 0.00202838 -0.000234355)
(0.00327076 -0.00250728 0.00353292)
(0.0031428 -0.00412647 0.00435027)
(0.00208709 0.000872009 -0.00116389)
(0.00125099 -0.00336999 0.00414012)
(-0.000321007 -0.00719438 0.00379687)
(-0.00998776 -0.00124763 0.00325118)
(-0.00976491 0.000378357 -0.00428184)
(-0.00754043 -0.00805326 -0.00917936)
(-0.0112642 -0.0043191 -0.0099712)
(-0.0120568 0.00142057 -0.00900518)
(-0.0084481 0.0019666 -0.0058063)
(-0.00693836 0.00628131 0.00567285)
(-0.00765996 0.00204733 0.00521346)
(-0.00575597 0.00115181 -0.00131728)
(-0.00797003 -0.00293235 0.00410177)
(-0.0129235 -0.000626519 0.0018762)
(-0.00210155 0.00130821 0.000562224)
(0.000947342 -0.00626153 -0.00235579)
(0.00497316 0.00406078 -0.00817686)
(0.0108683 -0.00087369 -0.0117992)
(0.0102866 -0.00937914 -0.00784584)
(0.00592471 -0.00794963 -0.00995122)
(-0.00510731 -0.00597644 -0.00726895)
(0.00114851 0.00371679 -0.0100455)
(0.00508685 0.00484872 -0.00579638)
(0.00698604 0.00304092 0.00128541)
(0.0129901 0.0015699 -0.00339787)
(0.0180098 0.00502208 0.00218758)
(0.0144412 0.00337818 0.010656)
(0.0131436 0.00285501 0.00654876)
(0.0155206 -0.00201284 0.00217387)
(0.0155458 -0.000773527 0.00160205)
(0.00591621 -0.000217682 0.00205006)
(0.00132119 -0.00276009 0.00223781)
(-0.0035222 0.000106358 0.000345868)
(-0.000820858 -0.00427665 0.00543348)
(-0.0108204 0.00188699 0.0034556)
(-0.0136339 0.00690542 0.000614522)
(-0.00545768 -0.00531281 -0.00906147)
(-0.00994572 -0.000100291 -0.00479838)
(-0.0161115 0.00937119 -0.00090098)
(-0.0102811 0.0118152 0.00141441)
(-0.0129155 0.00539741 0.00358291)
(-0.0158356 -0.000536241 0.00539615)
(-0.0167304 -9.81875e-05 0.00188197)
(-0.00722363 0.000996952 0.00235743)
(-0.00596204 -0.00183855 0.00502157)
(-0.00392256 -0.00592841 0.00881891)
(0.000411071 -0.00984634 0.00320957)
(-0.00150968 -0.0112429 0.00540915)
(-0.00413193 -0.0119734 -0.00463493)
(-0.00824355 -0.0115582 -0.0107332)
(-0.0106672 0.000969782 -0.000566974)
(-0.00754969 0.00350473 0.00600894)
(-0.0113145 0.00160655 0.0100792)
(-0.00222514 0.00522677 0.00886316)
(0.0015999 0.00103126 0.00154028)
(0.00740219 -0.00546621 -0.000156007)
(0.0103661 -0.00201878 0.0100072)
(0.00902234 0.00764871 0.010485)
(0.0150017 0.00457513 0.0134791)
(0.0116468 0.00504649 0.0165572)
(0.0122122 0.000105482 0.00942116)
(0.00898604 0.00563639 8.80255e-05)
(0.00180427 0.00262962 0.000406144)
(-0.000442706 -0.00496445 0.00100059)
(-0.00286502 -0.00391452 0.0026503)
(-0.00492962 -0.00358305 0.00490377)
(-0.0117865 -0.00218679 -0.00451357)
(-0.00862376 -0.00573408 -0.018222)
(-0.0133342 -0.0022915 -0.00723295)
(-0.0174387 0.000136459 -0.00426149)
(-0.0107747 0.00498735 -0.00801174)
(-0.0113703 3.99383e-05 -0.0026967)
(-0.0103275 -0.00458572 -0.000787283)
(-0.00826986 0.00187607 -0.000885946)
(-0.00726444 -0.00305914 0.00613146)
(-0.00750131 -0.00802744 0.010285)
(-0.00697018 -0.00718236 0.00827102)
(-0.00210153 -0.0100874 0.0074572)
(-0.00323049 -0.0126562 0.00925719)
(0.00233255 -0.0102915 0.00640414)
(-0.00521913 -0.00301076 -0.00135049)
(-0.00621599 0.00141747 -0.000615978)
(-0.00306223 -0.00564861 0.0100254)
(-0.00828799 -0.00645745 0.00643041)
(-0.0027607 -0.00841176 0.00923224)
(-0.00905562 0.000993809 0.0101006)
(0.00271834 -0.00084654 0.00712734)
(0.00336679 0.0020182 0.00357016)
(0.00335725 0.00178975 -0.00205578)
(0.0142191 0.00573108 0.0131021)
(0.00473946 0.00576248 0.0122726)
(0.00746734 0.00812985 0.00376738)
(0.00388975 0.00357344 -0.00322705)
(-0.00511743 0.00645854 0.000475321)
(0.000748674 -0.00440119 0.00120818)
(-0.00177529 -0.0081193 0.00126958)
(-0.00138115 -0.00691968 0.00086073)
(-0.00727855 -0.000731804 -0.00254171)
(-0.0116004 0.0120108 -0.0111585)
(-0.00636081 0.00898232 -0.0181062)
(-0.0168833 -0.00438099 -0.0160655)
(-0.00970876 -0.00207632 -0.00474757)
(-0.0101412 -0.00166392 -0.00115067)
(-0.00946803 0.000490775 0.0155747)
(-0.000951781 -0.00579212 0.0125719)
(0.00155621 -0.0157739 0.00401106)
(0.00555938 -0.00780782 0.00414191)
(0.00571235 -0.00346973 0.0101856)
(-0.00593502 -0.00893566 0.00974063)
(0.00522068 -0.0111969 -0.00218499)
(0.000666198 -0.0153597 0.000487921)
(0.0060213 -0.0151247 0.000709357)
(-0.000164697 -0.00634729 0.00348232)
(-0.00348614 -0.00681899 -0.00545953)
(-0.00289214 -0.0011633 0.00259468)
(-0.00188348 -0.00359206 0.00798121)
(-0.00392934 -0.00269266 -0.00180318)
(-0.00331502 0.00299681 0.00704382)
(0.00206541 0.00443248 0.00392328)
(0.00873774 0.00637277 -0.0034187)
(0.00415252 -0.00182632 -0.010411)
(0.0147894 0.00795985 -0.00453092)
(0.0104008 0.00773409 -0.0054244)
(0.0159787 0.00575672 -0.00619896)
(0.00701424 0.00779645 -0.00207664)
(0.00298047 0.00379639 0.00250287)
(0.00608398 -0.00503861 -0.00239717)
(-0.000517065 -0.00598058 -0.00283579)
(-0.00255835 0.000577905 -0.00108825)
(-0.008753 0.0089619 -0.00928434)
(-0.00480029 0.00100405 -0.0081074)
(-0.0150853 0.00216777 0.000913108)
(-0.00859847 -0.00347764 -0.00243272)
(-0.00797381 -0.00599199 0.00288386)
(-0.00563048 0.00510773 0.0124263)
(-0.00289046 -0.00381207 0.0138407)
(0.00440421 -0.00527875 0.0149717)
(0.00478983 -0.00179012 0.0144427)
(0.00436915 -0.0056133 0.0061168)
(0.00488967 -0.00196763 0.00711785)
(-0.0012062 -0.00548308 0.00155033)
(0.00971421 -0.00909297 -0.00966463)
(0.000336631 -0.0120672 -0.00751045)
(0.00153039 -0.0141079 -0.00796927)
(0.00219069 -0.00340478 0.00325151)
(-0.00564328 -0.0017377 -0.000398715)
(-0.00354644 -0.00122392 0.00547068)
(-0.00341387 -0.00278655 0.00643954)
(-0.000600155 0.00251547 -0.0101655)
(-0.00511504 0.00675253 -0.00435649)
(-0.00487776 0.00765644 -0.00616668)
(-0.00864556 -0.00278829 -0.0116899)
(-0.0051055 -0.0128394 -0.0122744)
(0.000877171 -0.00130148 -0.014771)
(0.00680162 0.0081981 -0.00232977)
(0.00595737 0.00950302 0.000984443)
(0.00408909 0.00459182 0.00495482)
(0.00747378 -0.00177109 0.00372741)
(0.0077564 -0.00599356 -0.00417697)
(0.00190602 -0.0039274 -0.00343919)
(0.00318934 0.00117284 0.00653822)
(0.000609627 0.00492857 0.00418966)
(0.00126169 0.00681244 -0.00210407)
(0.00230072 0.0111859 -0.00528323)
(0.0103865 -0.0030706 -0.00122315)
(-0.00315494 -0.0136152 -0.000223461)
(-0.00397325 -0.00372378 0.0038679)
(0.00479427 -0.0112259 -0.0139065)
(0.00135902 -0.0111663 -0.00819005)
(-0.00359038 -0.00349196 0.00282861)
(-0.00691852 0.00232885 0.00528063)
(-0.00972059 0.00251181 0.00234037)
(0.00396367 -0.00352306 -0.0101349)
(-0.000236014 -0.00797986 -0.0060623)
(0.00555846 -0.0154464 -0.00572081)
(-0.000666117 -0.0116908 -0.00803164)
(-0.00172883 -0.00305109 0.00427218)
(-0.0035374 -0.00377236 0.00193901)
(-0.00255556 0.00104668 0.00522204)
(-0.00185118 0.0024573 0.00404919)
(0.000563259 0.00201093 -0.00671631)
(-0.000908724 0.00822412 -0.00581741)
(-0.00210653 0.00389451 -0.0043718)
(-0.00646387 -0.0036164 -0.00957722)
(-0.000259425 0.00222775 -0.0102636)
(-0.00572091 0.00539372 -0.00542645)
(-0.00489274 0.00943632 0.00246179)
(-0.00286939 0.00640104 0.00022872)
(0.00419623 -0.00994532 0.00318864)
(0.00627586 -0.00945913 0.00507377)
(0.00951084 -0.00863404 0.00418209)
(0.0102993 -0.00974881 -0.00469955)
(0.00937763 -0.00154496 0.00101499)
(0.00536011 0.0111329 0.00843129)
(0.00490903 -0.00224281 0.00488396)
(0.00554316 -0.00740438 0.0039013)
(0.0143551 -0.00442907 0.00139079)
(0.0126044 0.00012361 -0.00222938)
(0.00461055 0.000486396 -0.00498824)
(0.0100265 -0.00506239 -0.0146574)
(0.00156978 -0.00424841 -0.0126789)
(-0.00306464 0.00737883 0.00190627)
(-0.0123615 0.000863594 0.00583375)
(-0.00684596 0.00778215 0.00306217)
(0.00461777 -0.00140097 -0.00302075)
(-0.00028255 -0.00760987 -0.00533378)
(0.0076713 -0.0151204 -0.00680786)
(-0.00639971 -0.0104201 -0.00176346)
(-0.00491764 -0.0022669 0.00503763)
(-0.00367059 -0.0078794 0.00292656)
(-0.00016049 0.00130177 0.00522724)
(0.000922409 0.00146936 0.00252248)
(0.00326439 -0.000769589 -0.00123758)
(0.00351703 0.00699538 0.00528064)
(0.00479636 0.00803023 -0.00285777)
(-0.00632437 0.000441301 -0.0055483)
(-0.0039123 0.0057208 -0.00180778)
(-0.00432919 0.00760501 0.00239729)
(-0.00569103 0.0103176 0.00253148)
(-0.00301337 0.00454007 0.00274758)
(0.00654015 -0.0145592 -0.0020343)
(0.00324314 -0.0160054 -0.000503931)
(0.00847588 -0.0124072 0.00319428)
(0.00817971 -0.0145877 0.002456)
(0.00957659 -0.00438082 -0.00221961)
(0.00499493 0.00431382 0.00657583)
(0.0137034 0.00378468 0.0137678)
(0.0033701 -0.0039508 0.000879641)
(0.00619623 -0.0113695 -0.00227248)
(0.0047682 -0.00917412 -0.00258242)
(0.00791932 0.00235751 -0.00530205)
(0.00750079 -0.00321884 0.00336978)
(0.00428908 -0.00824346 0.0039526)
(0.00832952 -1.55426e-05 -0.00329215)
(0.00823526 0.00473268 -0.0010595)
(-0.00339259 0.00309924 0.00851251)
(0.00588658 -0.0124327 0.00576049)
(-0.00357906 -0.00868698 -0.00496262)
(0.000850266 -0.0126643 -0.00455556)
(-0.00856073 -0.0110828 0.0024683)
(-0.0017993 -0.00442614 0.00215057)
(-0.00217534 -0.012166 0.00108148)
(-0.00102827 -0.00613422 0.00292025)
(0.000117875 -0.00320951 0.0015656)
(-0.000987316 -0.00193375 -0.000952033)
(0.00283206 0.0104134 -9.12106e-05)
(0.00161983 0.00721834 -0.00671634)
(-0.00676537 0.00587457 -0.00743948)
(-0.00751187 0.00856869 -0.000473375)
(-0.00969483 0.0107707 0.00438242)
(-0.00704944 0.0128206 0.00168598)
(-0.000425045 -0.0105019 0.00227726)
(0.00451849 -0.0175569 0.000917252)
(-0.00259615 -0.0144498 0.00113402)
(-0.00098588 -0.0142467 -0.00245295)
(0.000350596 -0.0118737 -0.00396583)
(-0.00353583 -0.00353634 -0.00502685)
(-0.00235147 9.97865e-05 -5.49356e-05)
(0.0024088 -0.00313071 0.000329139)
(0.00652853 -0.00553263 -0.0018197)
(0.00180635 -0.00471357 -0.00263964)
(-0.00195061 -0.00351642 0.00182101)
(0.00198007 -0.00601598 0.00559358)
(-0.00570903 -0.0119726 0.0104286)
(-0.00299053 0.000424726 0.0104007)
(0.00273678 0.00156786 0.00161351)
(0.00430182 0.00514571 -0.000918591)
(0.00160971 0.00213473 0.00157169)
(0.00325626 -0.0119283 -0.00298362)
(-0.00801944 -0.00626152 -0.00516749)
(-0.000797969 -0.0126098 0.00206047)
(0.000275114 -0.0134903 0.00443922)
(0.00348469 -0.0106748 -0.00156752)
(0.0030929 -0.0123158 -0.00152265)
(-0.00267826 -0.00740049 -0.000278715)
(0.000139638 -0.00407888 0.000834534)
(-0.00466716 -0.00392373 0.00182744)
(0.00263531 0.00834945 -0.00591125)
(-0.00697736 0.013028 -0.00554955)
(-0.0112864 0.00834456 0.00419138)
(-0.0106307 0.0130815 0.00158242)
(-0.0117093 0.0079855 0.000258266)
(-0.00593776 0.00232068 0.00269642)
(0.0028466 -0.0124316 -0.00386892)
(-0.00263852 -0.012076 -0.00495777)
(-0.00506576 -0.00847202 -0.00351432)
(-0.00372066 -0.00921294 -0.00301684)
(-0.00604521 -0.00644998 -0.0086463)
(-0.0100488 -0.00226331 -0.00959895)
(-0.00138897 -0.00237318 -0.00238954)
(0.0007433 -0.00239833 -0.000617674)
(-0.00142007 -0.00730016 -0.00295688)
(-0.00204083 -0.00537748 -0.00396698)
(-0.00592013 -0.009894 0.00257113)
(-0.00319337 -0.00312606 0.0119599)
(-0.00650882 -0.00259456 0.00923221)
(-0.00753456 -0.0021309 0.00669)
(-0.00288702 0.0076675 -0.0043664)
(-0.00966843 0.0051565 -0.00469626)
(0.00360534 -0.00934755 0.00309929)
(-0.000590346 -0.00532459 -0.0119998)
(-0.000688111 -0.00116401 -0.00635714)
(0.0060791 -0.011827 0.00383351)
(0.00858491 -0.0134642 0.00643406)
(0.00636634 -0.0125179 0.00108229)
(0.00573233 -0.013839 -0.00308487)
(-0.00309563 -0.0102285 -0.00349536)
(0.000772233 -0.00684263 -0.00299996)
(-0.0046695 -0.00553488 0.00120197)
(-0.000501909 0.00830779 0.000176388)
(-0.0132354 0.0142225 -0.0072582)
(-0.019075 0.00470632 0.00670222)
(-0.00510475 0.0110694 0.00355767)
(-0.0131958 0.00444759 -0.000548415)
(-0.00228525 -0.0062427 -0.00572081)
(-0.00187128 -0.0101027 -0.00710638)
(-0.00499127 -0.0095923 -0.00422169)
(-0.00810639 -0.00875892 -0.00673517)
(-0.00450816 -0.00528525 -0.00564776)
(-0.00146655 -0.00183776 -0.00988418)
(0.00302591 -0.00550607 -0.00683028)
(0.00464905 -0.0128879 9.18018e-05)
(0.00330249 -0.00425861 0.000604431)
(0.00165589 -0.00268164 -0.00542447)
(-0.00244681 -0.00137024 -0.0057421)
(0.00102915 -0.00322147 0.00658716)
(-0.00125062 -0.00816431 0.0114662)
(-0.00927072 -0.00594479 0.00108807)
(-0.0136965 -0.00187212 -0.00466127)
(-0.00916759 0.0040931 -0.00356983)
(-0.00501189 -0.00991436 -0.00457942)
(-0.00117203 -0.0143064 -0.00556632)
(-0.00134456 -0.00876048 -0.0107486)
(0.00321217 -0.00320414 -0.00984962)
(0.0084483 -0.00938736 -0.00364481)
(0.00562104 -0.0146393 0.00736453)
(0.00292191 -0.0106014 0.00445198)
(0.00240235 -0.00999722 -0.0012828)
(-0.00746822 -0.0085501 -0.00505462)
(-0.010714 -0.00318332 -0.0060912)
(-0.00941258 -0.00205713 -0.00429424)
(-0.00381329 0.01191 -0.0033478)
(0.00297111 0.0214488 -0.00965158)
(-0.0112255 0.00185019 -0.00536765)
(-0.00832759 0.0103333 0.00624654)
(-0.00593821 0.00872338 -0.000356051)
(-0.00072458 -0.00589263 -0.0129518)
(-0.00768114 -0.00569696 -7.94993e-05)
(-0.00410143 -0.00698248 -0.00584285)
(-0.00560447 -0.00556354 -0.00922463)
(-0.000212011 -0.00391407 -0.00674355)
(0.0117603 -0.00364742 0.00139162)
(0.00951276 -0.00902518 0.00560488)
(0.00236326 -0.00712901 0.00343501)
(-0.000259918 -0.00427613 0.00120243)
(0.00126314 0.00138229 -0.00529955)
(-0.00531856 -0.000721799 -0.00457462)
(0.00805723 -0.00556322 0.0117807)
(0.00654292 0.00639678 0.0180526)
(0.00323825 0.00726496 0.00908609)
(-0.00482896 -0.00915244 0.00521085)
(-0.00234157 -0.00911418 0.00196371)
(0.000751127 -0.00961825 0.000954525)
(-0.00626857 -0.0101205 -0.00509367)
(0.00114045 -0.00821064 -0.00846657)
(0.0010263 -0.00523479 -0.0134018)
(0.00636097 -0.00938188 -0.00337427)
(0.00334688 -0.0130347 0.00951664)
(0.00166966 -0.0119298 0.00203782)
(0.0041785 -0.0108482 0.00152845)
(-0.000266303 -0.00617389 -0.00122079)
(-0.00997879 -0.00596224 -0.00346302)
(-0.00763687 -0.00706306 -0.00183466)
(-0.00581771 0.004185 -0.00752563)
(0.00352604 0.0198772 -0.000531679)
(0.000548985 0.0177498 -0.000214151)
(-0.00376328 0.00703767 0.00177698)
(0.000743684 0.00366048 -0.00505862)
(0.000148307 0.000133177 -0.00459267)
(-0.00339828 -0.00336142 0.00689556)
(-0.000912009 -0.0057 0.0038188)
(0.00164799 -0.00360491 0.000151938)
(0.0109058 -0.00471899 0.00256915)
(0.00998075 -0.00331737 0.00890377)
(-0.00438799 -0.00508307 0.00147931)
(-0.00849824 -0.00674603 -0.00114106)
(-0.0114842 -0.00339027 0.00288353)
(-0.00421324 0.0011301 -0.00222403)
(-0.00241987 0.00141038 0.0037259)
(0.00600356 -0.00452542 0.0155492)
(0.000807521 -0.000863573 0.0158107)
(0.00790793 -0.00188799 0.00972112)
(0.00531787 0.00128766 0.0123361)
(0.0014673 -0.00366076 0.0106453)
(0.000931341 -0.00397047 0.00449326)
(0.00307673 -0.0053937 0.00134598)
(0.002331 -0.00375506 -0.00114157)
(0.00244052 -0.00380334 -0.0040928)
(0.00832341 -0.004516 0.0084782)
(0.00343734 -0.00952439 0.00794496)
(0.00343573 -0.0117328 -0.000289213)
(0.00305688 -0.0121815 0.000285059)
(0.00351748 -0.00798062 6.90802e-05)
(-0.00868458 -6.48677e-05 -0.00117236)
(-0.00795783 0.00128363 0.00601134)
(-0.016292 0.0103231 0.00377087)
(0.00577399 0.0170722 -0.0051116)
(-0.00178428 0.00710453 -0.00616912)
(0.00246652 0.010799 0.00261179)
(-0.00372856 0.00533228 -0.0090369)
(-0.00216224 0.00512632 0.00710423)
(0.000802211 -0.0107707 0.00243163)
(-0.000727278 -0.00479068 0.00226233)
(0.00230144 -0.00558072 0.00750424)
(0.00728894 0.000341724 0.00282304)
(0.0107879 0.00546344 0.00858102)
(0.00627052 0.0011184 0.00719844)
(0.00668557 -0.00420481 0.000921588)
(4.72784e-05 -0.00917389 0.00638492)
(-0.00338332 0.00165462 -0.00367699)
(0.00387527 0.00941831 -0.000616607)
(0.00880482 -0.00500261 0.00816312)
(0.00177797 -0.00265975 0.00718906)
(-0.00989713 -0.00501751 0.00728606)
(-0.00883456 -0.00210994 0.000448142)
(-0.00233527 -0.00195481 -0.00135832)
(-0.00225069 -0.00369908 0.00192719)
(0.00158064 -0.00254915 -0.000615605)
(0.00691967 0.00140934 0.0016278)
(0.0066565 0.00442225 0.00913488)
(0.00878024 -0.00465471 0.0099535)
(-5.26975e-05 -0.00849964 0.00323405)
(0.0015842 -0.00793024 0.00148382)
(0.00173874 -0.0120323 0.00226612)
(-0.00111793 -0.00652732 0.0014979)
(-0.0108396 0.00232116 -0.000552295)
(-0.00598754 0.00946304 0.00180269)
(-0.0116704 0.00442695 0.0105238)
(-0.00623332 0.00385397 0.0119171)
(-0.00185902 0.014828 -0.000648643)
(-0.00248374 0.00695812 -0.00140602)
(0.00167909 0.00874646 0.00208003)
(0.00215487 0.00061541 0.00601732)
(0.00337287 -0.00313965 -0.0034841)
(8.91989e-05 -0.00592972 -0.00468397)
(0.0053991 -0.0070419 -0.00869739)
(0.00557672 -0.00540975 -0.00257887)
(0.0143116 0.00132775 0.00164195)
(0.0115181 0.00027385 0.00468441)
(0.00876737 -0.00140148 0.00189107)
(0.00340838 -0.00483266 0.00429034)
(-0.00272608 0.00783198 0.00283474)
(0.00533729 0.00677446 0.0085954)
(-0.00053845 0.000607389 0.00827085)
(-0.006793 0.00608399 0.00668021)
(-0.00762614 0.00292663 0.00118056)
(-0.00452395 0.000574658 -0.00968335)
(-0.00770378 -0.00108137 -0.00817479)
(-0.00358797 -0.00289117 -0.00346216)
(-0.00364577 -0.00159946 -0.00276324)
(0.00552372 0.00447709 0.00727853)
(0.0062091 0.00324877 0.0133641)
(0.000475322 -0.00586972 0.00803486)
(-0.00268586 -0.00667372 0.00820604)
(-0.000273167 -0.0119453 0.00463436)
(-0.00299821 -0.0134889 0.00216371)
(-0.0110886 -0.00603287 0.0048921)
(-0.00412365 0.0018433 0.000972209)
(-0.00136483 0.00241881 -0.00210427)
(0.00329715 0.0105669 0.0104193)
(-0.0151989 0.00881915 0.019263)
(0.00531014 0.00682394 0.0170263)
(0.00131134 0.0119529 0.00833926)
(0.0187417 0.0140891 0.00887104)
(0.00402918 0.0145546 0.00842163)
(0.000305915 0.00711836 0.0108004)
(0.00723097 -0.00130183 0.00877977)
(0.0101776 -0.0061693 0.00122778)
(0.0105989 -0.00560863 0.00143834)
(0.00894468 0.00103604 0.00546656)
(0.00581286 0.00317746 0.00348972)
(-0.00174607 -0.001406 0.00128524)
(-0.0020595 -0.00264613 0.00402252)
(0.00345894 0.0135037 -0.0042153)
(0.00337263 0.00947826 0.00425677)
(-0.00493583 0.000978113 0.0052341)
(-0.00905265 -0.000461916 0.00589003)
(-0.00501289 -0.000298888 0.00175016)
(-0.00275314 0.00285273 -0.0124388)
(-0.0039311 -0.00160789 -0.0090089)
(-0.000832245 -0.00528569 -0.00220454)
(-0.00125051 -0.00465533 -0.00107913)
(0.00806866 0.000906414 0.0120181)
(-0.00165953 0.000465276 0.00889804)
(0.00128648 -0.00586445 0.00494498)
(-0.000134557 -0.00446657 0.00521683)
(0.00376766 -0.00867332 0.0013164)
(-0.00153212 -0.00590038 0.00257055)
(-0.00243385 -0.00400028 0.00529941)
(-0.00640447 -0.0015019 0.00657603)
(0.00607506 0.00361182 0.000587257)
(0.0032628 0.00784467 -0.000861156)
(0.000271536 0.0130659 0.0134806)
(0.000569593 0.0112063 0.0263789)
(0.00640427 0.00996901 0.0161029)