 /*--------------------------------*-C++ -*----------------------------------*
 | ========= |
 |       /  F ield         | OpenFOAM: The Open Source CFD Toolbox           | 
 |  /  O peration | Version:  2.1.1 
 |        A nd    | Web www.OpenFOAM.org |
 |   /     M anipulation  |         
 *----------------------------------------*/
 FoamFile
 {
     version     2.0;
     format      ascii;
     class       volVectorField;
     location  "0"; 
     object      U; 
 }
 // * * * * * * * * * * * * * * * * * * * * * * * //
 dimensions      [0 1 -1 0 0 0 0];
 internalField   nonuniform List<vector> 
 
       32768
 
 (
 (  3.3857904E-03  1.0179351E-03 -3.5708528E-03 )
 ( -1.1739851E-04  3.7211331E-03 -3.1035761E-03 )
 ( -3.1018890E-03  2.4321096E-03 -2.4017473E-03 )
 ( -3.1710104E-03 -8.9132792E-04 -3.7895259E-03 )
 ( -9.7457676E-05 -1.9054384E-03 -6.5111308E-03 )
 (  4.1212458E-03 -5.6332461E-05 -8.2577625E-03 )
 (  6.9504459E-03  5.6284643E-04 -7.4758595E-03 )
 (  7.0695234E-03 -2.8499207E-03 -4.4497391E-03 )
 (  5.0487970E-03 -8.0417050E-03 -1.2586992E-03 )
 (  2.8299671E-03 -1.1088063E-02 -3.6813639E-04 )
 (  2.0557384E-03 -1.0839172E-02 -2.1380384E-03 )
 (  2.5876290E-03 -8.3543714E-03 -3.4270242E-03 )
 (  3.1801225E-03 -4.1660666E-03 -1.3657440E-03 )
 (  3.4146358E-03  1.2870129E-03  1.4608088E-03 )
 (  4.1921576E-03  6.2577552E-03  6.0512323E-04 )
 (  6.5270592E-03  9.0722190E-03 -2.5351564E-03 )
 (  1.0214534E-02  9.3020219E-03 -3.2470955E-03 )
 (  1.3323382E-02  7.4367896E-03 -1.4341517E-03 )
 (  1.3405820E-02  5.2788677E-03 -5.1947212E-04 )
 (  9.9395877E-03  4.7085951E-03 -1.0559461E-03 )
 (  4.8463061E-03  4.4230646E-03 -1.6378764E-04 )
 (  1.8445180E-04  1.3333187E-03  3.2624253E-03 )
 ( -3.3940000E-03 -3.4771154E-03  5.3839930E-03 )
 ( -5.6992578E-03 -4.8830626E-03  2.3894489E-03 )
 ( -6.0950834E-03 -1.0634144E-03 -2.9636510E-03 )
 ( -4.1176430E-03  4.2228065E-03 -4.7530537E-03 )
 ( -5.0311448E-04  7.1572862E-03 -1.7908029E-03 )
 (  2.7600676E-03  7.0489380E-03  2.5341180E-03 )
 (  4.1481070E-03  4.4257222E-03  5.3340965E-03 )
 (  4.3284534E-03  2.3583655E-04  5.4503507E-03 )
 (  4.7680223E-03 -3.0229804E-03  2.6941765E-03 )
 (  5.0236043E-03 -2.6017281E-03 -1.3124860E-03 )
 (  6.9438173E-03 -9.5972398E-05 -2.1067178E-03 )
 (  4.6862136E-03  3.0012038E-03 -8.2512392E-04 )
 (  1.1722249E-03  1.8233393E-03  1.2121990E-03 )
 ( -1.3289704E-03 -1.8667328E-03  1.3772381E-03 )
 ( -1.3077103E-03 -3.3866656E-03 -1.0201968E-03 )
 (  7.1459851E-04 -1.8307288E-03 -4.3299347E-03 )
 (  2.7737180E-03 -1.0669411E-03 -5.8893166E-03 )
 (  3.0977258E-03 -3.4836058E-03 -4.5204749E-03 )
 (  1.3419304E-03 -6.8706051E-03 -1.7980329E-03 )
 ( -1.3904654E-03 -8.4125912E-03 -6.4556731E-04 )
 ( -3.7522975E-03 -7.9592271E-03 -2.6974031E-03 )
 ( -5.1552146E-03 -6.3327150E-03 -6.2000523E-03 )
 ( -5.1721665E-03 -3.4519013E-03 -7.8568617E-03 )
 ( -2.8792296E-03  3.7178365E-04 -7.4003725E-03 )
 (  1.9442705E-03  3.7370385E-03 -6.6350070E-03 )
 (  7.7863499E-03  5.9792860E-03 -4.6968139E-03 )
 (  1.2526786E-02  7.5363140E-03 -1.9060614E-04 )
 (  1.4682475E-02  8.4886272E-03  4.0581082E-03 )
 (  1.3660820E-02  8.6732311E-03  4.4193366E-03 )
 (  1.0200599E-02  8.3243446E-03  2.0109212E-03 )
 (  6.0320501E-03  6.9112489E-03  7.5947103E-04 )
 (  2.1252572E-03  3.0867900E-03  1.6439743E-03 )
 ( -1.6281051E-03 -1.9585618E-03  1.3782057E-03 )
 ( -4.6998514E-03 -3.7882258E-03 -2.2151712E-03 )
 ( -5.5534644E-03 -2.5733493E-04 -5.7813148E-03 )
 ( -3.3020801E-03  5.3903875E-03 -4.8287124E-03 )
 (  1.0441946E-03  8.9995274E-03 -2.3965439E-04 )
 (  4.9284701E-03  9.3099382E-03  3.5513199E-03 )
 (  6.3555315E-03  6.4417901E-03  4.5740823E-03 )
 (  6.0255709E-03  1.1746848E-03  3.7568561E-03 )
 (  6.1106035E-03 -3.4402965E-03  1.7492796E-03 )
 (  7.0007718E-03 -3.7773803E-03 -8.5864187E-04 )
 (  8.3934134E-03 -2.5600551E-03 -7.5536582E-04 )
 (  7.4617201E-03  2.0905538E-03  4.5013434E-04 )
 (  3.7856759E-03  2.9682119E-03  3.5231439E-03 )
 ( -6.4516958E-04  2.6433269E-04  5.6546014E-03 )
 ( -3.2151313E-03 -1.9209945E-03  4.4163018E-03 )
 ( -2.8773686E-03 -1.9096314E-03  2.8985861E-04 )
 ( -8.9285307E-04 -2.0541600E-03 -3.4923169E-03 )
 (  3.4590790E-04 -3.5973652E-03 -4.1705724E-03 )
 ( -7.1355968E-04 -4.6069613E-03 -1.9779850E-03 )
 ( -3.7613241E-03 -3.8364213E-03  1.1495101E-04 )
 ( -7.3029087E-03 -2.6798197E-03 -1.2880341E-03 )
 ( -9.6783517E-03 -2.4720354E-03 -6.3033793E-03 )
 ( -9.1962833E-03 -2.6983523E-03 -1.1111813E-02 )
 ( -4.7060712E-03 -2.3728856E-03 -1.2447496E-02 )
 (  2.6617334E-03 -8.3292101E-04 -9.9180993E-03 )
 (  9.5009655E-03  2.4553931E-03 -3.9521633E-03 )
 (  1.3083041E-02  6.8211523E-03  3.4869681E-03 )
 (  1.3301483E-02  1.0092499E-02  7.6239482E-03 )
 (  1.1458863E-02  1.0694578E-02  5.7771918E-03 )
 (  8.7015005E-03  9.1753006E-03  1.4314126E-03 )
 (  5.7216678E-03  6.6867578E-03 -4.1297532E-04 )
 (  2.6555480E-03  3.0414639E-03  2.9109369E-04 )
 ( -5.9048738E-04 -1.3288261E-03 -3.6190567E-04 )
 ( -3.3525436E-03 -3.2155276E-03 -3.6785821E-03 )
 ( -4.2915060E-03 -4.2368897E-04 -5.8752578E-03 )
 ( -2.7029691E-03  4.5687575E-03 -3.4442185E-03 )
 (  6.2164781E-04  8.1319641E-03  1.5538967E-03 )
 (  3.6301599E-03  9.1062523E-03  4.2354977E-03 )
 (  4.6766605E-03  6.9551780E-03  3.5492280E-03 )
 (  4.4271555E-03  1.4341049E-03  2.2923090E-03 )
 (  4.9588983E-03 -4.5127524E-03  1.5457302E-03 )
 (  6.8582399E-03 -6.1854329E-03  2.7138880E-04 )
 (  5.5794353E-03 -5.9423489E-03 -7.1483193E-04 )
 (  5.9924754E-03  5.1928411E-04 -8.9911897E-05 )
 (  3.6876088E-03  4.9679102E-03  3.0678140E-03 )
 ( -1.9964471E-04  4.9652341E-03  6.0923630E-03 )
 ( -3.2019985E-03  2.6842193E-03  5.8652991E-03 )
 ( -3.5997303E-03  3.5983196E-04  2.0989089E-03 )
 ( -1.8713681E-03 -1.9488959E-03 -2.4043152E-03 )
 ( -2.1046355E-04 -3.5919908E-03 -4.3777614E-03 )
 ( -5.5576174E-04 -2.8636158E-03 -2.6174253E-03 )
 ( -3.0185005E-03 -1.8204938E-04  7.0159545E-04 )
 ( -6.0697645E-03  1.4628249E-03  1.2385796E-03 )
 ( -7.6594329E-03  7.7640056E-05 -2.7646443E-03 )
 ( -6.1195688E-03 -3.3197482E-03 -7.9697510E-03 )
 ( -1.2576371E-03 -6.0773762E-03 -9.9636726E-03 )
 (  4.7559440E-03 -5.3471779E-03 -7.3206546E-03 )
 (  8.7447558E-03  8.1337239E-05 -1.1978679E-03 )
 (  9.4949557E-03  7.4305208E-03  5.0427658E-03 )
 (  8.4988652E-03  1.1788635E-02  6.5864921E-03 )
 (  7.5027193E-03  1.1235984E-02  2.1608220E-03 )
 (  6.5502003E-03  8.1191473E-03 -3.2622165E-03 )
 (  4.8448564E-03  5.0580199E-03 -4.4001662E-03 )
 (  2.2282896E-03  1.8567543E-03 -2.1268048E-03 )
 ( -6.7342166E-04 -1.8325200E-03 -1.1855263E-03 )
 ( -2.8801996E-03 -3.4623696E-03 -3.2247759E-03 )
 ( -3.6097355E-03 -1.1179232E-03 -4.8858947E-03 )
 ( -2.8333829E-03  2.9611490E-03 -2.7072541E-03 )
 ( -1.2935817E-03  5.9714648E-03  1.8126710E-03 )
 ( -9.7306547E-05  7.3830406E-03  3.9321813E-03 )
 (  1.4536377E-04  6.1940970E-03  2.5785454E-03 )
 (  1.2523802E-04  1.0766386E-03  1.2194162E-03 )
 (  1.1080763E-03 -5.6680818E-03  1.2034239E-03 )
 (  3.3402517E-03 -8.9101670E-03  5.5534561E-04 )
 (  8.6038915E-04 -9.7690523E-03 -1.2983793E-03 )
 (  1.9718527E-03 -2.3894454E-03 -1.1910220E-03 )
 (  1.8426544E-03  5.9121335E-03  9.8108675E-04 )
 (  5.6113227E-04  9.9541750E-03  3.1671287E-03 )
 ( -7.1830378E-04  8.9326985E-03  2.9297979E-03 )
 ( -8.9527870E-04  4.7319680E-03 -5.1094808E-06 )
 (  1.0079945E-04 -4.1694942E-04 -3.8499827E-03 )
 (  1.3283729E-03 -3.6384787E-03 -5.9163347E-03 )
 (  1.6857786E-03 -2.8653638E-03 -4.1080494E-03 )
 (  9.3963469E-04  3.5163309E-04  5.0390442E-04 )
 ( -9.7962475E-06  1.8326110E-03  3.5678884E-03 )
 (  2.0033168E-04 -7.1120943E-04  2.1966570E-03 )
 (  2.3210885E-03 -5.5874647E-03 -1.6837190E-03 )
 (  5.4765460E-03 -9.0858452E-03 -4.2214012E-03 )
 (  7.4444441E-03 -7.6965876E-03 -3.6398456E-03 )
 (  6.8532149E-03 -6.3670211E-04 -6.5908732E-04 )
 (  4.8466269E-03  7.7597969E-03  2.0469581E-03 )
 (  3.7449892E-03  1.1406935E-02  9.9692703E-04 )
 (  4.2635226E-03  9.2683043E-03 -4.0562437E-03 )
 (  4.8686350E-03  5.5104541E-03 -8.5002240E-03 )
 (  3.8414169E-03  2.9981204E-03 -8.2567455E-03 )
 (  1.0070427E-03  4.2734429E-04 -4.7611464E-03 )
 ( -2.4657177E-03 -3.0823520E-03 -2.4825588E-03 )
 ( -4.9576317E-03 -4.8230765E-03 -3.2885657E-03 )
 ( -5.4961853E-03 -2.8893771E-03 -4.7051068E-03 )
 ( -4.5777909E-03  5.7014829E-04 -3.3004258E-03 )
 ( -3.4786058E-03  3.2818872E-03  4.1347038E-04 )
 ( -2.9246474E-03  5.0157271E-03  2.2165305E-03 )
 ( -2.7699559E-03  4.5746095E-03  7.9348445E-04 )
 ( -2.5238730E-03  2.5652495E-04 -4.9844937E-04 )
 ( -1.8489324E-03 -6.4669941E-03 -1.3689112E-04 )
 ( -6.5328635E-04 -1.1154158E-02 -2.2424276E-04 )
 ( -1.9216512E-03 -1.2883595E-02 -2.1094137E-03 )
 ( -1.3172489E-03 -5.7899328E-03 -2.7568298E-03 )
 ( -2.8375845E-04  5.2937358E-03 -2.1649573E-03 )
 (  1.0183979E-03  1.3232698E-02 -1.2703128E-03 )
 (  2.4925529E-03  1.4431250E-02 -1.5994852E-03 )
 (  3.7509813E-03  9.6526109E-03 -3.3508101E-03 )
 (  4.5212409E-03  2.0666609E-03 -5.6795911E-03 )
 (  5.0392016E-03 -3.6582875E-03 -6.7581693E-03 )
 (  5.5791177E-03 -4.3616598E-03 -4.4593853E-03 )
 (  6.1893067E-03 -1.8304989E-03  6.3551031E-04 )
 (  7.0448141E-03 -9.3473069E-04  4.6341112E-03 )
 (  8.4379660E-03 -3.9232378E-03  4.5213290E-03 )
 (  1.0143441E-02 -8.4032817E-03  1.2034137E-03 )
 (  1.0905958E-02 -1.0476732E-02 -2.4127397E-03 )
 (  9.3128402E-03 -7.6580835E-03 -4.3536229E-03 )
 (  5.7571484E-03 -5.0689228E-04 -4.2330688E-03 )
 (  2.6446369E-03  6.4024669E-03 -3.5070828E-03 )
 (  1.8935824E-03  8.0926260E-03 -4.7569657E-03 )
 (  2.9407800E-03  5.0529614E-03 -8.0789747E-03 )
 (  3.7185722E-03  2.0464459E-03 -1.0002526E-02 )
 (  2.7334937E-03  1.0301014E-03 -8.1526451E-03 )
 ( -3.4732057E-04 -5.9544685E-04 -4.4167018E-03 )
 ( -4.7557210E-03 -4.1928333E-03 -2.2842227E-03 )
 ( -8.3991317E-03 -6.8584504E-03 -2.9202020E-03 )
 ( -9.2575978E-03 -6.1022178E-03 -4.2542471E-03 )
 ( -7.5767813E-03 -3.2490455E-03 -3.5559628E-03 )
 ( -5.2040750E-03 -2.9679501E-04 -1.3383292E-03 )
 ( -3.2464177E-03  2.0665098E-03 -9.3229173E-04 )
 ( -1.8235615E-03  2.5396263E-03 -2.8606912E-03 )
 ( -1.1309044E-03 -4.0743352E-04 -3.8386947E-03 )
 ( -1.3105569E-03 -6.3093523E-03 -2.6184290E-03 )
 ( -1.8372920E-03 -1.2120761E-02 -1.5752076E-03 )
 ( -1.5585701E-03 -1.3677261E-02 -2.0969992E-03 )
 ( -2.0733103E-03 -7.4886270E-03 -4.3425434E-03 )
 ( -1.2078903E-03  4.4104727E-03 -5.6835525E-03 )
 (  1.4779249E-03  1.4114026E-02 -5.4309755E-03 )
 (  5.4598674E-03  1.6856778E-02 -5.0436584E-03 )
 (  8.8794176E-03  1.2521133E-02 -5.2550435E-03 )
 (  1.0239794E-02  3.9255884E-03 -5.6276559E-03 )
 (  9.8868869E-03 -3.6442718E-03 -4.9421214E-03 )
 (  9.1462154E-03 -5.9206500E-03 -2.0873609E-03 )
 (  8.9793410E-03 -4.3540876E-03  1.8318821E-03 )
 (  9.7419331E-03 -4.0867636E-03  3.8656320E-03 )
 (  1.1141872E-02 -7.1287649E-03  2.5207789E-03 )
 (  1.2166180E-02 -1.0494018E-02 -9.9126715E-04 )
 (  1.1532165E-02 -1.0570546E-02 -4.7700466E-03 )
 (  8.7500885E-03 -6.4914119E-03 -7.3917699E-03 )
 (  5.0208680E-03 -2.8185916E-04 -7.6985061E-03 )
 (  2.4525495E-03  4.1135135E-03 -6.4074313E-03 )
 (  1.9542903E-03  3.8884201E-03 -6.2704603E-03 )
 (  2.5921231E-03  7.6216599E-04 -7.6563479E-03 )
 (  3.0811131E-03 -1.0578963E-03 -7.3596062E-03 )
 (  2.6177296E-03 -5.9905736E-04 -3.8796510E-03 )
 (  2.2885184E-04 -1.0069341E-03  1.5260683E-05 )
 ( -4.4782008E-03 -4.3054637E-03  1.1133453E-03 )
 ( -9.4388342E-03 -8.2128970E-03 -4.5274419E-04 )
 ( -1.1501097E-02 -9.5034428E-03 -1.9507026E-03 )
 ( -9.9135088E-03 -7.8245634E-03 -1.7854273E-03 )
 ( -6.2868018E-03 -4.6711699E-03 -1.6964122E-03 )
 ( -2.1434347E-03 -1.3530805E-03 -3.9817258E-03 )
 (  1.3093416E-03  7.6238590E-04 -7.2441106E-03 )
 (  2.7116803E-03  1.6884378E-05 -7.7913092E-03 )
 (  1.8156921E-03 -4.5585660E-03 -4.9145911E-03 )
 ( -6.6352186E-05 -1.1093950E-02 -1.9800898E-03 )
 ( -4.0101854E-04 -1.1857238E-02  4.8153478E-04 )
 ( -1.1919681E-03 -6.9434862E-03 -4.1422225E-03 )
 (  2.3210539E-05  3.5565107E-03 -7.7079716E-03 )
 (  3.7818199E-03  1.2170393E-02 -7.7556558E-03 )
 (  9.2470525E-03  1.4906558E-02 -6.4027063E-03 )
 (  1.3827882E-02  1.1574950E-02 -5.1445737E-03 )
 (  1.5224454E-02  3.8978260E-03 -3.3145186E-03 )
 (  1.3419835E-02 -3.5857696E-03 -3.2809091E-04 )
 (  1.0201639E-02 -6.3264673E-03  2.7663778E-03 )
 (  7.6504098E-03 -5.3766882E-03  3.7484854E-03 )
 (  7.0629651E-03 -5.7027857E-03  1.5664917E-03 )
 (  8.1412923E-03 -8.8782832E-03 -2.0684770E-03 )
 (  9.2136199E-03 -1.1486663E-02 -4.6965838E-03 )
 (  8.7603470E-03 -1.0235371E-02 -6.0905474E-03 )
 (  6.7112320E-03 -5.4369271E-03 -6.9383220E-03 )
 (  4.3258606E-03 -8.0356018E-05 -6.3219471E-03 )
 (  2.8854669E-03  2.5139279E-03 -4.3780399E-03 )
 (  2.5766438E-03  1.1311587E-03 -3.8430761E-03 )
 (  2.8896469E-03 -2.0225381E-03 -4.7895596E-03 )
 (  3.5855682E-03 -3.3904533E-03 -3.2273743E-03 )
 (  4.1899662E-03 -2.0932138E-03  2.0121688E-03 )
 (  3.0342124E-03 -9.9233049E-04  6.4351074E-03 )
 ( -1.1779590E-03 -3.0603746E-03  6.0535339E-03 )
 ( -6.7847623E-03 -7.5275870E-03  2.6576982E-03 )
 ( -1.0335817E-02 -1.0888143E-02  7.1092299E-04 )
 ( -1.0151208E-02 -1.1020808E-02  8.6455280E-04 )
 ( -6.7661921E-03 -8.4954184E-03 -4.0031446E-04 )
 ( -1.4300441E-03 -4.5233211E-03 -4.7874437E-03 )
 (  3.6436471E-03 -2.5484519E-04 -9.1407243E-03 )
 (  5.7923105E-03  1.7970080E-03 -9.1891130E-03 )
 (  4.5109186E-03 -1.2605339E-03 -4.4253808E-03 )
 (  1.7846510E-03 -8.1294915E-03  5.8942626E-04 )
 ( -2.0849975E-03 -9.1716852E-03  4.7891913E-03 )
 ( -1.8624304E-03 -6.3664736E-03 -2.3765804E-03 )
 (  1.3598185E-03  9.8094682E-04 -7.8565739E-03 )
 (  6.9171963E-03  6.9612674E-03 -8.0070868E-03 )
 (  1.2980053E-02  9.2454068E-03 -5.6802384E-03 )
 (  1.7042650E-02  7.7161998E-03 -2.8611850E-03 )
 (  1.7396390E-02  2.6505471E-03  1.3287041E-03 )
 (  1.4184193E-02 -3.0027512E-03  6.3149892E-03 )
 (  9.1896001E-03 -5.2574715E-03  8.5610077E-03 )
 (  4.9537723E-03 -4.7252085E-03  5.2979556E-03 )
 (  3.3821035E-03 -5.6204530E-03 -1.6751532E-03 )
 (  4.3351213E-03 -9.0148859E-03 -7.0359414E-03 )
 (  5.8887983E-03 -1.1411053E-02 -7.3705423E-03 )
 (  6.2839636E-03 -9.7552259E-03 -4.7981869E-03 )
 (  5.3878422E-03 -4.8418138E-03 -2.9754157E-03 )
 (  4.2991173E-03 -2.6004273E-05 -1.8187629E-03 )
 (  3.8781206E-03  1.6882455E-03 -5.2853423E-04 )
 (  4.0386836E-03 -3.0795965E-04 -8.1317883E-04 )
 (  4.4438671E-03 -3.8129643E-03 -1.8881339E-03 )
 (  5.0706035E-03 -5.4067378E-03  8.1527809E-04 )
 (  5.4953084E-03 -3.5676933E-03  7.6754782E-03 )
 (  4.3479307E-03 -6.6159852E-04  1.2191267E-02 )
 (  6.7075912E-04 -7.4024819E-04  9.6641015E-03 )
 ( -4.3323650E-03 -4.7589336E-03  3.7831790E-03 )
 ( -8.1423484E-03 -9.4323717E-03  9.7277755E-04 )
 ( -9.1687217E-03 -1.1478488E-02  1.5109294E-03 )
 ( -7.0054675E-03 -1.0481366E-02  7.2351022E-04 )
 ( -2.1018616E-03 -6.7769806E-03 -3.1005000E-03 )
 (  3.1978511E-03 -8.2461582E-04 -6.6176429E-03 )
 (  5.5196742E-03  3.8347242E-03 -5.7776854E-03 )
 (  3.8386537E-03  2.3297465E-03  5.9730428E-05 )
 (  3.4883735E-04 -4.4978731E-03  5.8576609E-03 )
 ( -7.0687803E-03 -7.4178167E-03  7.2558364E-03 )
 ( -5.9593716E-03 -7.4930899E-03 -2.0749597E-03 )
 ( -8.6247572E-04 -4.0140492E-03 -8.4503870E-03 )
 (  6.2485770E-03 -4.9309933E-04 -7.9460433E-03 )
 (  1.2543418E-02  2.2347812E-03 -3.9488268E-03 )
 (  1.5910383E-02  3.5858657E-03  9.1445254E-04 )
 (  1.5740106E-02  2.2124199E-03  6.7121438E-03 )
 (  1.2650284E-02 -8.0630375E-04  1.1579284E-02 )
 (  8.1416415E-03 -2.4446484E-03  1.1218212E-02 )
 (  4.3041729E-03 -2.5435686E-03  4.1057365E-03 )
 (  2.7149105E-03 -3.9508692E-03 -5.3529632E-03 )
 (  3.2838078E-03 -7.4165827E-03 -1.0256535E-02 )
 (  4.5506940E-03 -9.8895635E-03 -7.9688057E-03 )
 (  5.1009459E-03 -8.5449079E-03 -2.8444587E-03 )
 (  4.7461609E-03 -4.2370250E-03 -2.2093339E-04 )
 (  4.4516446E-03 -3.0653120E-04  1.6194658E-04 )
 (  4.9997894E-03  5.8333820E-04  6.1524537E-04 )
 (  6.0288231E-03 -1.8527708E-03  6.3483824E-04 )
 (  6.5560802E-03 -5.4670628E-03  9.3948998E-04 )
 (  5.8673802E-03 -6.8195746E-03  5.0374488E-03 )
 (  3.7793224E-03 -4.0002265E-03  1.2064657E-02 )
 (  5.8272941E-04  7.1492756E-04  1.5019711E-02 )
 ( -3.0267478E-03  2.4349964E-03  9.9902935E-03 )
 ( -6.1025708E-03 -9.2776451E-04  1.9848261E-03 )
 ( -7.8937160E-03 -6.3143661E-03 -2.0028828E-03 )
 ( -8.1375483E-03 -9.8471772E-03 -1.5317594E-03 )
 ( -6.5857824E-03 -1.0530755E-02 -6.3093449E-04 )
 ( -3.1462898E-03 -7.9459893E-03 -1.0400736E-03 )
 (  6.9346937E-04 -1.6960361E-03 -1.2173099E-03 )
 (  2.1256024E-03  4.4298996E-03  1.0792223E-03 )
 ( -1.4789308E-04  4.3758117E-03  6.4632688E-03 )
 ( -4.3283543E-03 -1.8544815E-03  1.0642428E-02 )
 ( -1.1563097E-02 -6.4264936E-03  6.2810387E-03 )
 ( -1.0952442E-02 -9.0016425E-03 -4.3707690E-03 )
 ( -6.3927551E-03 -9.0791611E-03 -1.0590499E-02 )
 (  2.3285826E-04 -7.5455871E-03 -8.8759111E-03 )
 (  6.3040103E-03 -3.8205856E-03 -2.8877545E-03 )
 (  1.0022468E-02  9.9659071E-04  3.5845141E-03 )
 (  1.1009632E-02  3.9253533E-03  8.7420503E-03 )
 (  9.8556802E-03  3.9000111E-03  1.0380117E-02 )
 (  7.6506007E-03  2.7265192E-03  6.5410910E-03 )
 (  5.6570093E-03  1.6732579E-03 -1.2941964E-03 )
 (  4.6046861E-03 -3.1902810E-04 -7.9320623E-03 )
 (  4.3518157E-03 -3.8818670E-03 -8.5763196E-03 )
 (  4.3518646E-03 -6.7402511E-03 -3.7246982E-03 )
 (  4.1391831E-03 -6.2726126E-03  7.3788984E-04 )
 (  3.7883481E-03 -3.2673092E-03  5.2414479E-04 )
 (  4.0851035E-03 -8.5001299E-04 -1.6896477E-03 )
 (  5.5097388E-03 -1.0416519E-03 -1.5243547E-03 )
 (  7.1796407E-03 -3.6266060E-03  8.6526497E-04 )
 (  7.2919196E-03 -6.4577465E-03  4.1639241E-03 )
 (  4.4692601E-03 -6.3501145E-03  8.9175701E-03 )
 ( -9.4717287E-04 -1.8437094E-03  1.3432004E-02 )
 ( -6.6540898E-03  4.2497576E-03  1.2972351E-02 )
 ( -1.0051630E-02  6.6288533E-03  6.0902378E-03 )
 ( -1.0245689E-02  3.0211548E-03 -2.4994521E-03 )
 ( -8.2366066E-03 -3.2172643E-03 -7.4633989E-03 )
 ( -5.6814910E-03 -7.6268753E-03 -7.7716992E-03 )
 ( -3.5886848E-03 -9.1789272E-03 -4.9123042E-03 )
 ( -1.9588785E-03 -7.8250170E-03 -2.9002587E-04 )
 ( -8.4635383E-04 -2.8292253E-03  4.5055654E-03 )
 ( -1.2719113E-03  3.0224950E-03  8.5545694E-03 )
 ( -4.1458244E-03  4.0437351E-03  1.2082072E-02 )
 ( -8.4898230E-03 -7.7989604E-04  1.2682826E-02 )
 ( -1.1920520E-02 -4.9095880E-03  3.8872662E-03 )
 ( -1.2360328E-02 -8.4134005E-03 -6.5978873E-03 )
 ( -1.0353251E-02 -1.1085601E-02 -1.1964492E-02 )
 ( -6.4947712E-03 -1.1672118E-02 -9.6237268E-03 )
 ( -1.8527813E-03 -7.7529405E-03 -2.9443030E-03 )
 (  2.3441117E-03 -6.7477100E-05  3.3721616E-03 )
 (  5.1922556E-03  7.1315467E-03  5.7084924E-03 )
 (  6.4702351E-03  1.0381346E-02  2.6808197E-03 )
 (  6.5993899E-03  9.8988721E-03 -3.5627938E-03 )
 (  6.2414794E-03  7.8655202E-03 -8.3700698E-03 )
 (  5.6945826E-03  4.9495003E-03 -7.7536772E-03 )
 (  4.8973728E-03  6.9960079E-04 -1.4310761E-03 )
 (  3.9795120E-03 -3.1741848E-03  5.9420853E-03 )
 (  3.2480322E-03 -4.0743253E-03  7.8525925E-03 )
 (  3.0144250E-03 -2.6432809E-03  2.9358573E-03 )
 (  3.6882481E-03 -1.6272987E-03 -2.6818679E-03 )
 (  5.1923078E-03 -2.3332387E-03 -2.9471037E-03 )
 (  6.3603418E-03 -4.3309159E-03  1.4832205E-03 )
 (  5.4497295E-03 -5.7329591E-03  6.5924800E-03 )
 (  1.2619065E-03 -3.6553729E-03  9.8997382E-03 )
 ( -5.4844227E-03  2.6439959E-03  1.0131390E-02 )
 ( -1.1698378E-02  9.4763832E-03  6.4900997E-03 )
 ( -1.4021557E-02  1.1293371E-02 -1.8461376E-04 )
 ( -1.1554044E-02  6.2478520E-03 -7.4357945E-03 )
 ( -6.1769919E-03 -1.3163829E-03 -1.2753110E-02 )
 ( -9.8853162E-04 -5.8955089E-03 -1.4027484E-02 )
 (  1.5681284E-03 -6.8339626E-03 -9.6126832E-03 )
 (  1.1588815E-03 -5.9180297E-03 -4.7724295E-04 )
 ( -7.8407821E-04 -3.0668187E-03  8.8405916E-03 )
 ( -3.1475858E-03  8.6423371E-04  1.4317089E-02 )
 ( -6.0338345E-03  2.2067088E-03  1.5565479E-02 )
 ( -9.3640536E-03 -6.0548901E-04  1.2430339E-02 )
 ( -8.1813568E-03 -2.6583259E-03  2.6343039E-03 )
 ( -8.6817313E-03 -5.1509677E-03 -5.9891292E-03 )
 ( -9.1180978E-03 -8.9307427E-03 -1.0148259E-02 )
 ( -8.8202506E-03 -1.1711620E-02 -8.3545297E-03 )
 ( -6.8852771E-03 -9.1522336E-03 -2.9149691E-03 )
 ( -3.3198262E-03 -5.6236773E-04  1.7462812E-03 )
 (  6.4922275E-04  9.6303858E-03  1.1468980E-03 )
 (  3.4779219E-03  1.6087286E-02 -5.2045165E-03 )
 (  4.4889511E-03  1.7039420E-02 -1.2114007E-02 )
 (  4.2469734E-03  1.4489611E-02 -1.3166614E-02 )
 (  3.6621897E-03  1.0186278E-02 -6.1494582E-03 )
 (  3.1199923E-03  4.2928006E-03  5.4175686E-03 )
 (  2.7319086E-03 -1.3138619E-03  1.4202632E-02 )
 (  2.6060548E-03 -3.7473447E-03  1.4276478E-02 )
 (  2.7228363E-03 -3.3949879E-03  7.0241024E-03 )
 (  3.0490751E-03 -2.6163429E-03  1.7420419E-04 )
 (  3.4067200E-03 -2.4592839E-03 -6.3450332E-04 )
 (  3.2356572E-03 -3.1410446E-03  3.0990215E-03 )
 (  1.7978376E-03 -3.4929046E-03  6.3632238E-03 )
 ( -1.4945179E-03 -4.5525059E-04  6.0863006E-03 )
 ( -6.2494152E-03  6.7888079E-03  2.9372070E-03 )
 ( -1.0352568E-02  1.3928851E-02 -6.1275833E-04 )
 ( -1.1216419E-02  1.4905689E-02 -3.7568926E-03 )
 ( -7.9940017E-03  8.1413714E-03 -7.7963099E-03 )
 ( -2.2952291E-03 -7.1509118E-04 -1.2748874E-02 )
 (  2.6552593E-03 -4.7076284E-03 -1.5269478E-02 )
 (  3.9490866E-03 -3.7259648E-03 -1.1384038E-02 )
 (  1.3237570E-03 -2.2373190E-03 -1.3494898E-03 )
 ( -2.6971316E-03 -1.5974379E-03  9.4702132E-03 )
 ( -5.6003281E-03 -5.9730629E-04  1.5641842E-02 )
 ( -6.9892192E-03  5.4299868E-05  1.5865812E-02 )
 ( -7.6748328E-03 -8.4867730E-04  1.1094541E-02 )
 ( -3.1677450E-03 -1.0011561E-03  3.3861173E-03 )
 ( -2.7152686E-03 -9.0274803E-04 -2.4953065E-03 )
 ( -4.2561162E-03 -3.9594877E-03 -5.4045343E-03 )
 ( -6.5305717E-03 -8.2332883E-03 -4.6943212E-03 )
 ( -7.2575375E-03 -8.3002998E-03 -1.3392577E-03 )
 ( -5.0785341E-03 -1.4228350E-03  1.4823452E-03 )
 ( -1.1191212E-03  9.5314914E-03 -5.6353578E-04 )
 (  1.8343434E-03  1.8723305E-02 -7.7937273E-03 )
 (  2.0562678E-03  2.2077911E-02 -1.4445089E-02 )
 (  5.0277601E-04  1.9807713E-02 -1.4161919E-02 )
 ( -6.9859449E-04  1.3841454E-02 -5.8625406E-03 )
 ( -6.1801105E-04  5.5955714E-03  5.7221325E-03 )
 (  3.0913122E-04 -2.0032716E-03  1.3452294E-02 )
 (  1.2934252E-03 -5.5153864E-03  1.3315319E-02 )
 (  1.6585148E-03 -5.1400475E-03  8.0703916E-03 )
 (  1.2041081E-03 -3.2599731E-03  3.8125257E-03 )
 (  3.2991252E-04 -1.3770085E-03  3.2850180E-03 )
 ( -4.2723963E-04 -8.7527378E-04  4.3152692E-03 )
 ( -8.9257897E-04 -1.3819926E-03  3.3050824E-03 )
 ( -1.4535262E-03  8.7676226E-04 -8.0228690E-04 )
 ( -2.5103579E-03  7.8442506E-03 -4.7719949E-03 )
 ( -3.5395364E-03  1.5258260E-02 -4.6484121E-03 )
 ( -3.3624161E-03  1.6302709E-02 -1.6625744E-03 )
 ( -1.4316137E-03  9.0528112E-03 -1.0199121E-03 )
 (  1.3751140E-03 -2.4974021E-05 -4.7139302E-03 )
 (  2.8886318E-03 -2.8780871E-03 -9.0509318E-03 )
 (  1.1281146E-03  6.7976936E-05 -8.9928173E-03 )
 ( -3.4555227E-03  2.1205531E-03 -3.1084435E-03 )
 ( -7.8799287E-03  6.1731087E-04  5.3317598E-03 )
 ( -9.4648469E-03 -1.6535975E-03  1.1566477E-02 )
 ( -8.0649517E-03 -2.5465677E-03  1.2989926E-02 )
 ( -5.3608730E-03 -2.1454447E-03  9.6254917E-03 )
 (  4.8465570E-04 -1.1393446E-03  5.2712858E-03 )
 (  1.6375737E-03  2.2357777E-03  2.0762165E-03 )
 (  2.3445402E-05  1.2911418E-03  3.6781540E-04 )
 ( -3.1421166E-03 -3.3640475E-03  3.5820223E-04 )
 ( -5.3397864E-03 -6.4061317E-03  1.9637770E-03 )
 ( -4.6102088E-03 -3.0193571E-03  3.3599352E-03 )
 ( -1.7882136E-03  6.8418556E-03  1.1550839E-03 )
 (  4.4308610E-05  1.8102819E-02 -5.0550099E-03 )
 ( -9.8439981E-04  2.4384622E-02 -1.0806125E-02 )
 ( -3.4829283E-03  2.3111735E-02 -1.1351630E-02 )
 ( -4.8565618E-03  1.5759934E-02 -6.1596404E-03 )
 ( -4.2587621E-03  5.3068171E-03  1.1548024E-03 )
 ( -2.6313332E-03 -3.8427268E-03  5.8649280E-03 )
 ( -1.1584957E-03 -7.6778494E-03  6.3098562E-03 )
 ( -5.4979621E-04 -6.4765597E-03  5.0993371E-03 )
 ( -8.1915909E-04 -3.1728074E-03  4.8609436E-03 )
 ( -1.2847261E-03 -3.8167502E-05  5.0007165E-03 )
 ( -1.1705675E-03  7.2724815E-04  3.5565686E-03 )
 ( -2.3755440E-04 -9.6075039E-04 -6.5516069E-04 )
 (  1.1403777E-03 -6.1544066E-04 -6.6027874E-03 )
 (  2.4371727E-03  5.1836283E-03 -9.6256863E-03 )
 (  3.5256739E-03  1.2874838E-02 -5.4923478E-03 )
 (  4.5506773E-03  1.5177005E-02  2.9676999E-03 )
 (  5.3507206E-03  9.4846617E-03  8.2812337E-03 )
 (  5.2376105E-03  2.0029228E-03  6.8613733E-03 )
 (  3.1648059E-03  6.3367054E-04  1.3146554E-03 )
 ( -1.3941295E-03  4.4107474E-03 -3.3756918E-03 )
 ( -7.0904349E-03  5.8337236E-03 -3.6754417E-03 )
 ( -1.1004919E-02  1.9239325E-03  3.4641344E-04 )
 ( -1.1067523E-02 -3.5045070E-03  5.6676855E-03 )
 ( -7.7186027E-03 -6.2490483E-03  8.9213233E-03 )
 ( -3.1196980E-03 -5.0941687E-03  8.4345210E-03 )
 (  2.3254668E-03 -2.5627387E-03  6.3632168E-03 )
 (  2.9283462E-03  3.5641496E-03  5.8626188E-03 )
 (  1.3313715E-03  4.8162607E-03  5.5892635E-03 )
 ( -1.6644639E-03  5.0768349E-04  5.4575438E-03 )
 ( -4.3768468E-03 -4.7749430E-03  5.8079129E-03 )
 ( -5.2165082E-03 -4.8120404E-03  5.9682294E-03 )
 ( -4.4348808E-03  3.2126659E-03  4.0294100E-03 )
 ( -3.9796159E-03  1.5465113E-02 -1.7848110E-04 )
 ( -4.9173902E-03  2.4082638E-02 -4.1566612E-03 )
 ( -6.1297058E-03  2.4167731E-02 -5.6008431E-03 )
 ( -6.1457604E-03  1.6476640E-02 -4.3099467E-03 )
 ( -5.0010639E-03  4.9755778E-03 -1.7346886E-03 )
 ( -3.6234993E-03 -4.8811613E-03  2.1562082E-04 )
 ( -2.4637033E-03 -8.7639848E-03  1.1902023E-03 )
 ( -1.3569803E-03 -7.1293307E-03  2.4651228E-03 )
 ( -9.5697593E-05 -3.3360084E-03  3.8530994E-03 )
 (  1.2600661E-03  2.8445438E-05  3.5478529E-03 )
 (  2.4161143E-03  5.4141821E-04  1.0130199E-03 )
 (  3.1022287E-03 -2.2724532E-03 -3.4030378E-03 )
 (  3.4401603E-03 -3.8079843E-03 -8.7408135E-03 )
 (  4.0325345E-03  4.4037830E-04 -1.0865936E-02 )
 (  5.4573282E-03  7.9443976E-03 -5.4970742E-03 )
 (  7.5285104E-03  1.1668292E-02  4.8965942E-03 )
 (  9.1937464E-03  8.6449049E-03  1.2921136E-02 )
 (  9.1966186E-03  4.0685115E-03  1.4120190E-02 )
 (  6.6958056E-03  4.5021540E-03  9.5104482E-03 )
 (  1.8297060E-03  8.3440971E-03  3.2633431E-03 )
 ( -3.6621988E-03  8.3918963E-03 -4.8034408E-04 )
 ( -7.1150721E-03  2.1548204E-03 -4.4022221E-04 )
 ( -7.0206053E-03 -5.8957301E-03  2.0746882E-03 )
 ( -4.1029099E-03 -1.0268773E-02  5.0166552E-03 )
 ( -3.6477565E-04 -8.6858794E-03  6.5205712E-03 )
 (  3.7526116E-03 -3.6009667E-03  4.5190668E-03 )
 (  2.7911961E-03  3.8965044E-03  7.4027241E-03 )
 (  8.2778110E-04  6.1930167E-03  9.4956141E-03 )
 ( -1.8817054E-03  2.3155145E-03  1.0042837E-02 )
 ( -4.8843743E-03 -3.7622219E-03  9.5538506E-03 )
 ( -7.2365026E-03 -5.7693133E-03  8.4564611E-03 )
 ( -8.2208039E-03  2.5806439E-04  6.4927530E-03 )
 ( -7.9555940E-03  1.1728966E-02  3.9806226E-03 )
 ( -6.7829764E-03  2.1094104E-02  1.7443412E-03 )
 ( -4.8703966E-03  2.2679636E-02  7.0196278E-05 )
 ( -2.7155518E-03  1.6197938E-02 -8.7663042E-04 )
 ( -1.1214577E-03  5.2135051E-03 -7.6964410E-04 )
 ( -3.2181520E-04 -4.7068205E-03  5.7387042E-05 )
 (  4.0764344E-04 -9.1109592E-03  1.0363903E-03 )
 (  2.0021247E-03 -8.2636010E-03  1.8588615E-03 )
 (  4.5085987E-03 -5.1119677E-03  1.6081135E-03 )
 (  6.8539106E-03 -1.8635822E-03 -1.7137337E-04 )
 (  7.6525253E-03 -1.0712584E-03 -2.3099764E-03 )
 (  6.2330053E-03 -3.9493069E-03 -4.6941992E-03 )
 (  3.3798355E-03 -6.4403531E-03 -8.2177268E-03 )
 (  1.1762732E-03 -3.6673772E-03 -1.0187815E-02 )
 (  1.4365364E-03  2.7446260E-03 -6.1971103E-03 )
 (  4.1414807E-03  6.6137412E-03  2.7439261E-03 )
 (  7.6588225E-03  5.3265961E-03  1.0728594E-02 )
 (  1.0066889E-02  3.2565033E-03  1.3551306E-02 )
 (  1.0025009E-02  5.5096564E-03  1.1518823E-02 )
 (  7.3536960E-03  9.9139512E-03  7.7078603E-03 )
 (  3.5617189E-03  9.5916595E-03  4.4753938E-03 )
 (  9.9963788E-04  2.2455002E-03  1.7667857E-03 )
 (  7.9754466E-04 -7.4010077E-03 -2.4242554E-04 )
 (  2.1348358E-03 -1.2881275E-02 -1.9416063E-04 )
 (  3.4629395E-03 -1.1024085E-02  1.7842553E-03 )
 (  5.5786786E-03 -3.3417803E-03 -1.0540274E-03 )
 (  3.3121968E-03  4.0750802E-03  5.8046039E-03 )
 (  1.1028564E-03  6.0661314E-03  1.1593206E-02 )
 ( -1.5498416E-03  2.5288789E-03  1.4078265E-02 )
 ( -5.0407117E-03 -2.9253562E-03  1.3387674E-02 )
 ( -8.3974926E-03 -5.4706829E-03  1.0951443E-02 )
 ( -9.7516747E-03 -1.7953230E-03  8.1306379E-03 )
 ( -8.0518508E-03  6.9209514E-03  5.8660521E-03 )
 ( -3.9511966E-03  1.5447021E-02  4.1002799E-03 )
 (  6.7557715E-04  1.8711826E-02  2.2821480E-03 )
 (  3.9784061E-03  1.4752644E-02  8.1833295E-04 )
 (  5.3557488E-03  5.3236587E-03  6.2174624E-04 )
 (  5.6718402E-03 -4.5382567E-03  1.3903469E-03 )
 (  6.2995614E-03 -1.0038156E-02  1.7076356E-03 )
 (  7.8810891E-03 -1.0583110E-02  4.2950670E-04 )
 (  9.8263156E-03 -8.0817556E-03 -2.4115795E-03 )
 (  1.0882392E-02 -4.3705441E-03 -5.0740801E-03 )
 (  9.9134594E-03 -2.5011080E-03 -5.7235840E-03 )
 (  6.3901646E-03 -4.4904589E-03 -5.7031354E-03 )
 (  1.2211502E-03 -6.9774343E-03 -7.5431233E-03 )
 ( -3.0242067E-03 -5.3561567E-03 -9.3941977E-03 )
 ( -4.0160976E-03 -8.0026971E-04 -6.9996226E-03 )
 ( -1.6722984E-03  1.5852499E-03 -5.3199491E-04 )
 (  2.2980508E-03  8.1189602E-05  5.6234929E-03 )
 (  5.9733996E-03 -1.1718540E-03  8.4806336E-03 )
 (  7.9561286E-03  2.1563212E-03  8.7483022E-03 )
 (  7.8731067E-03  7.7806250E-03  8.3273863E-03 )
 (  6.8796580E-03  8.8006863E-03  6.6601411E-03 )
 (  6.6774180E-03  2.2036976E-03  1.7093070E-03 )
 (  7.5533986E-03 -7.6507288E-03 -4.7914195E-03 )
 (  8.2059307E-03 -1.3475650E-02 -8.0570346E-03 )
 (  7.4992091E-03 -1.1291554E-02 -6.3216593E-03 )
 (  6.2760604E-03 -2.5064563E-03 -7.6246527E-03 )
 (  3.9277943E-03  3.6542455E-03  2.1734484E-03 )
 (  2.2902675E-03  4.6739876E-03  1.1481247E-02 )
 ( -1.6314586E-04  1.8015403E-03  1.6242066E-02 )
 ( -4.1321586E-03 -2.1216767E-03  1.5656309E-02 )
 ( -7.8433789E-03 -4.7241137E-03  1.1874741E-02 )
 ( -8.4868288E-03 -3.9580627E-03  7.7167191E-03 )
 ( -5.0038672E-03  9.0357295E-04  4.7971089E-03 )
 (  9.2652650E-04  7.9237549E-03  2.6924212E-03 )
 (  6.3626799E-03  1.2960515E-02  6.5216882E-04 )
 (  9.3294196E-03  1.1939070E-02 -7.0177403E-04 )