/*--------------------------------*- C++ -*----------------------------------*\
  =========                 |
  \\      /  F ield         | OpenFOAM: The Open Source CFD Toolbox
   \\    /   O peration     | Website:  https://openfoam.org
    \\  /    A nd           | Version:  6
     \\/     M anipulation  |
\*---------------------------------------------------------------------------*/
FoamFile
{
    version     2.0;
    format      ascii;
    class       volScalarField;
    location    "4";
    object      p;
}
// * * * * * * * * * * * * * * * * * * * * * * * * * * * * * * * * * * * * * //

dimensions      [1 -1 -2 0 0 0 0];

internalField   nonuniform List<scalar> 
16128
(
0.998935
0.998397
0.999036
1.0014
1.00103
0.997359
1.00165
1.00003
1.00186
1.0003
0.999963
1.00184
0.998181
1.00027
0.999589
0.999846
1.00037
1.00087
0.99995
1.00135
1.00603
1.0197
0.975515
0.621872
5.74436
10.5819
10.4714
10.615
10.7582
10.9068
11.0081
11.1392
11.269
11.3728
11.3979
11.2839
11.2068
11.2284
11.1662
11.2244
11.1373
11.158
11.2358
11.3287
11.5031
11.7043
11.9545
12.8398
1.00076
0.998409
1.00048
0.998582
0.999582
0.99935
1.00073
0.999277
0.999376
0.999353
1.00165
0.998762
1.001
1.00265
1.00003
1.00067
0.997737
0.999088
0.999314
1.00176
1.00003
1.00508
1.01652
1.043
6.71956
10.3242
10.2749
10.6185
10.7861
10.9248
11.0631
11.2062
11.2673
11.395
11.378
11.3483
11.2506
11.222
11.0683
11.1065
11.0795
11.2325
11.1662
11.2974
11.2296
11.4451
11.4197
12.0148
0.996693
1.00344
0.998289
1.00105
0.99822
1.00267
0.997096
1.00292
0.998471
1.00314
0.999
1.00028
0.998254
1.0007
1.00087
0.999168
1.00017
0.998068
1.00209
0.998102
1.00374
0.996412
0.993856
0.854232
6.16016
10.2772
10.3991
10.6052
10.759
10.8891
11.0261
11.1304
11.2165
11.2766
11.3546
11.4088
11.351
11.3166
11.2758
11.2635
11.2702
11.2226
11.2569
11.3411
11.3766
11.2619
11.3449
11.5541
0.997932
1.00146
0.997537
1.00191
0.999026
1.00217
0.998642
1.00244
0.999482
1.0019
0.997228
0.999496
1.00208
0.999157
1.00093
1.00039
1.0003
0.997978
0.999766
0.999474
1.00075
1.01227
0.985616
0.396571
5.21058
10.5076
10.3758
10.5976
10.7466
10.8879
10.9571
11.0513
11.1978
11.3453
11.4151
11.4469
11.3646
11.2591
11.2046
11.1897
11.1659
11.2956
11.188
11.3731
11.404
11.5468
11.4131
11.6401
0.999393
1.0031
0.997437
1.00284
0.995245
1.00601
0.994183
1.00389
0.992184
1.00426
0.998632
1.00221
0.996364
1.00382
1.00044
1.00024
1.00072
0.997367
0.999682
1.00098
1.00152
1.00623
0.998606
0.264403
4.27834
10.6563
10.4818
10.6253
10.7483
10.8218
10.9036
10.9879
11.1491
11.2668
11.3438
11.3198
11.1876
11.0308
10.8456
10.9316
11.0255
11.1317
11.2496
11.3671
11.3932
11.5321
11.6252
11.7151
0.999916
1.00068
0.997976
0.999523
1.00057
1.00263
0.998328
1.0007
1.00104
1.00099
0.998544
1.00107
0.999092
1.00195
0.997367
1.00006
0.999445
1.0007
0.99413
1.00892
0.99071
1.01655
0.989344
0.382273
4.38022
10.477
10.2537
10.5199
10.6499
10.7763
10.8616
10.9331
11.022
11.0684
11.1069
11.109
11.0024
10.8379
10.7468
10.8486
11.0055
11.1849
11.2051
11.459
11.4825
11.6411
11.733
11.8113
1.00059
0.998366
0.999977
0.997498
1.00403
0.997809
0.999516
1.0017
1.00004
1.00239
0.998105
1.00259
0.99361
1.00581
0.993181
1.00584
0.996951
1.0026
0.998912
1.00011
1.00251
1.02386
0.969303
0.345562
2.76465
10.5098
10.4467
10.567
10.694
10.809
10.8947
10.934
10.9086
10.9409
11.0034
11.0192
10.8981
10.6849
10.6725
10.7981
11.01
11.2737
11.4637
11.565
11.5633
11.6984
11.7835
11.8691
1.00061
0.998598
0.99958
1.00016
1.00045
1.00083
1.00058
0.999722
0.998411
1.00101
1.00014
0.999031
1.00081
1.00239
0.997501
1.0017
0.996606
1.00792
0.989073
1.01989
0.978872
1.02512
0.981597
0.717053
2.18558
10.0017
10.2818
10.3883
10.5231
10.6634
10.7715
10.8328
10.9214
10.9949
11.0177
10.9066
10.7622
10.6664
10.6019
10.8184
10.9554
11.2957
11.5245
11.7021
11.7119
11.7113
11.6583
11.6886
0.996863
1.00428
0.99432
1.00532
1.0003
0.99992
0.998934
0.998694
1.00179
0.995002
1.00691
0.993524
1.00551
0.995892
1.00238
0.99905
1.00337
1.01202
0.985513
1.00816
0.986514
1.01377
0.98735
0.880047
1.90521
9.30498
10.1711
10.2686
10.4165
10.5538
10.6719
10.766
10.8521
10.8661
10.8676
10.8078
10.7746
10.668
10.7119
10.8619
11.0776
11.3489
11.6163
11.7829
11.7522
11.8603
11.8213
11.756
0.999034
1.00029
0.998897
0.999857
1.00158
0.995799
1.00362
1.00045
1.00001
1.00291
0.996938
1.00239
0.997639
1.00251
1.00078
0.994749
1.0044
0.996291
1.00241
1
1.00742
1.01229
0.96345
0.955428
1.68867
8.44677
10.0958
10.1749
10.3113
10.4455
10.5688
10.5966
10.7158
10.7558
10.7623
10.8307
10.7705
10.7582
10.8372
11.0008
11.1416
11.3837
11.6348
11.7232
11.7488
11.7521
11.6728
11.7547
0.999348
0.999716
1.002
0.998507
1.00013
0.995896
1.00315
0.99947
1.00225
0.999902
0.999241
0.997727
1.0019
1.0011
0.999214
1.00073
0.998263
1.00323
0.996872
1.00307
1.00021
0.999438
1.01536
1.10298
1.45545
7.51716
10.0649
10.0789
10.2369
10.3547
10.4443
10.5081
10.5529
10.651
10.7258
10.7554
10.7498
10.8153
10.9325
11.1076
11.2048
11.3753
11.4378
11.5968
11.6376
11.7472
11.709
11.8333
0.999652
0.999514
1.00306
0.997558
0.997912
1.00117
1.00098
0.999405
0.999749
0.998952
1.00301
0.996168
1.00555
0.995847
1.00478
0.994918
0.999451
1.00126
1.00014
0.999255
0.99765
0.999746
1.00643
1.0266
1.06994
6.51893
10.0837
10.1161
10.2697
10.3329
10.3732
10.4317
10.4931
10.4991
10.6292
10.6889
10.7365
10.7245
10.8464
11.0447
11.1773
11.1918
11.3668
11.3988
11.4856
11.5681
11.7064
11.7108
0.998133
1.00075
1.00174
0.999225
0.999712
0.99892
1.00097
1.00015
1.00046
0.996287
1.00543
0.995231
1.00718
0.996016
1.00231
0.997623
1.00002
0.999591
1.00115
1.00106
1.00203
1.00857
1.0199
0.970579
0.644552
5.53607
10.1369
10.0655
10.1437
10.2498
10.3342
10.3142
10.3861
10.4381
10.5382
10.555
10.6589
10.7027
10.7633
10.8037
10.9688
10.9663
11.1103
11.2606
11.3213
11.4503
11.3043
11.3173
1.00044
1.0031
0.997071
1.00228
0.993751
1.00632
0.993682
1.00544
0.996594
1.00155
0.997181
1.00163
1.0003
0.999065
0.998399
1
1.00148
0.998347
1.00266
1.00076
1.00093
1.00581
1.02657
0.972325
0.314202
3.24692
10.2569
10.1332
10.2901
10.1937
10.2719
10.2951
10.3677
10.3913
10.4828
10.4128
10.5933
10.5532
10.7558
10.7336
10.8736
10.8652
11.1034
10.9734
11.2327
10.9202
10.871
10.5945
0.999735
1.00031
1.00031
1.00084
0.999365
1.00262
0.99793
1.0009
0.998729
1.00153
0.996037
1.00608
0.992975
1.00443
0.997126
1.00217
0.99935
1.00171
1.00739
0.99809
0.994922
0.999829
1.01731
0.984081
0.836128
2.01066
9.40483
10.083
10.0741
10.1294
10.2031
10.0947
10.2952
10.2221
10.3786
10.2929
10.5379
10.3174
10.7047
10.4499
10.6916
10.5904
10.7665
10.5065
10.5914
10.5571
10.4571
10.6584
0.998224
1.00186
0.998626
0.99899
0.999813
0.999964
1.00141
1.0019
1.00114
0.999619
0.998047
1.00283
0.99417
1.00196
0.998127
1.00302
0.997873
1.00329
1.00041
0.995727
1.00766
0.995558
1.00615
0.994775
0.963901
1.62023
8.28759
9.99778
9.96778
10.0072
10.088
10.1683
10.3154
10.3172
10.3358
10.2416
10.4218
10.2548
10.5029
10.2725
10.5431
10.3469
10.6907
10.1092
10.5325
9.84891
10.0621
8.54809
1.00574
0.994885
1.0014
0.999149
1.00197
0.997155
0.999579
1.00125
0.997995
1.00237
0.999489
1.00047
0.999055
1.00086
1.00094
0.999947
1.00007
0.996812
1.00029
1.0065
0.995652
1.00159
0.998595
1.01103
1.06344
1.27065
6.92548
9.83978
9.81497
10.0206
10.0685
10.0405
10.19
10.0891
10.2704
10.1636
10.3611
10.1695
10.3624
9.97203
10.4507
9.77044
10.3479
9.37267
10.3063
7.87451
9.39596
4.3936
0.998711
1.00015
0.999177
1.00077
0.998716
1.00107
1.00103
0.997984
0.999616
0.999153
1.00202
0.998255
1.00507
0.997827
1.0011
0.999954
1.00086
0.998937
0.999753
1.00008
1.00002
1.00087
1.00081
1.00054
0.999781
0.896944
5.89964
9.76993
9.72421
9.80952
9.87678
9.96157
10.0663
10.03
10.259
10.0867
10.2536
10.0421
10.1911
10.0051
10.1105
9.8198
9.9471
9.4269
9.17314
8.36064
7.55509
5.2353
0.998954
0.999352
1.00253
0.998047
1.00413
0.997737
1.00419
0.994755
1.00497
0.997375
1.00091
1.00032
0.996165
1.00288
0.999036
1.00191
0.999126
0.999338
0.99718
0.999041
1.00011
0.999974
1.00263
1.02206
0.972812
0.331341
3.45593
9.88531
9.80891
9.92518
9.88578
9.96468
10.0165
9.94057
10.1783
9.90961
10.1681
9.87849
10.1581
9.71619
9.94052
9.4729
9.69532
8.94202
9.05089
7.88259
7.13617
6.05108
0.994679
1.00286
0.996997
1.00226
0.999658
0.997591
1.00747
0.993318
1.00768
0.995388
1.00225
0.996418
1.00058
0.999227
1.00295
0.998926
1.00132
0.997382
1.00104
0.998577
1.00159
1.01358
0.983134
1.01906
0.986909
0.858818
1.92553
8.79806
9.78568
9.73872
9.84601
9.85119
9.95029
9.80406
9.9926
9.78484
9.95319
9.76349
9.92836
9.70493
9.72018
9.44975
9.2505
8.9551
8.40607
7.99115
6.7574
6.56575
0.997482
1.00378
0.998326
1.00341
0.995621
1.0021
0.998781
1.00086
0.998575
0.998754
1.00086
1.00007
1.00066
0.99894
1.00184
0.998571
0.999559
0.999923
1.00139
1.00271
0.997442
1.00592
0.994694
1.00426
0.993703
0.994582
1.45383
7.42504
9.64638
9.67218
9.76969
9.6639
9.8488
9.73466
9.82571
9.61656
9.83803
9.61421
9.73457
9.4836
9.58567
9.20063
9.19691
8.63335
8.35033
7.68701
6.68079
6.68028
0.999441
1.00215
0.996974
1.00329
0.997917
1.00144
0.996511
1.00025
0.999794
1.0003
1.00245
0.997153
1.00278
0.998335
1.00151
0.996928
1.00269
0.99705
0.999694
1.00161
1.00271
0.99701
1.00539
1.00104
1.0011
0.999866
0.960251
5.93979
9.58628
9.39046
9.60185
9.57074
9.69098
9.52361
9.70979
9.56569
9.67564
9.49064
9.4705
9.43462
9.25398
9.05869
8.85354
8.59204
7.96325
7.73949
6.62689
6.70097
1.00444
0.994166
1.00184
1.00007
1.00203
0.995246
1.00005
1.00122
0.998619
1.00002
1.00018
1.00325
0.993831
1.00555
0.997232
1.00549
0.993112
1.00576
0.998554
1.00019
0.997257
1.00383
0.997443
1.00239
1.02314
0.97137
0.406195
3.22904
9.75663
9.58942
9.79232
9.59196
9.60835
9.57075
9.6104
9.46492
9.54713
9.32789
9.42683
9.20799
9.14761
8.84615
8.7112
8.32281
7.79782
7.64273
6.5924
6.70483
1.00454
0.993017
1.00479
0.99573
1.00418
0.998512
0.997632
1.00236
0.998046
1.00135
0.995867
1.00742
0.992711
1.00456
0.995864
1.00411
0.99803
1.00348
0.998547
0.998678
1.00672
0.995264
1.00843
0.986719
1.01456
0.987499
0.876693
1.85478
8.42309
9.38258
9.40439
9.37322
9.49874
9.33218
9.42925
9.36207
9.30662
9.21933
9.12333
9.03748
8.90862
8.71366
8.40841
8.23455
7.62726
7.65715
6.46987
6.73645
1.00137
0.998809
1.00231
0.995917
1.00383
0.997679
0.999442
1.00277
0.996477
1.00389
0.996463
1.0026
0.99626
1.00375
0.997409
1.00096
0.996066
1.00472
0.996443
0.999412
1.002
0.99951
1.00079
1.0003
0.998667
1.00538
1.05287
1.32446
6.80103
9.36424
9.37519
9.37156
9.39929
9.16915
9.46394
9.21292
9.32631
9.05069
9.061
8.82725
8.82736
8.52898
8.29318
8.00531
7.53948
7.40096
6.5127
6.72641
1.00011
0.999911
1.00085
0.99895
1.00142
0.998121
1.00297
0.997898
1.00193
0.998261
1.00048
1.00057
0.999781
0.999958
1.00305
0.997333
0.998936
0.999325
0.999769
1.00076
0.998514
1.00132
1.00003
1.00223
1.00406
1.02016
0.978181
0.357066
4.34342
9.56945
9.55702
9.31298
9.2785
9.28573
9.31159
9.10874
9.10533
8.94417
8.86335
8.72114
8.55244
8.45599
8.06165
7.95662
7.33687
7.41203
6.34933
6.57031
0.995934
1.0062
0.995609
1.0053
0.996668
1.00182
0.997405
1.00114
0.999805
0.99586
1.00755
0.995445
1.00454
0.994585
1.00513
0.997657
0.999902
1.00001
0.999496
1.00472
0.993118
1.01068
0.990581
1.00904
0.993516
1.01738
0.987713
0.875976
2.21284
8.55253
9.30929
9.16143
9.23148
9.01864
9.25717
8.93492
9.05992
8.85776
8.81617
8.5649
8.55174
8.25023
8.04933
7.81099
7.36884
7.24513
6.37729
6.64123
1.00091
0.997598
1.00358
0.996522
1.0034
0.993862
1.00242
0.998223
1.00282
0.996891
1.00437
0.995968
1.00711
0.994415
1.00561
0.996474
1.00529
0.995379
1.00067
0.997692
0.998393
1.00491
0.996459
1.00671
0.991244
1.00683
0.994329
1.01551
1.44919
6.93597
9.19228
8.97136
9.1546
8.94211
9.1158
8.91367
8.91785
8.74869
8.66278
8.49941
8.31402
8.20097
7.78518
7.74111
7.16735
7.21224
6.35715
6.5529
0.998524
1.00057
0.997608
1.00108
1.00118
1.00186
1.00038
1.00177
0.998303
0.999217
1.00241
0.995817
1.00543
0.996923
1.00266
0.996652
1.00457
0.995153
1.00509
0.993803
1.00563
0.995884
1.00226
0.99834
1.00043
1.00426
1.02337
0.975882
0.407081
4.11047
9.50561
9.09296
9.21724
8.90806
9.06916
8.82101
8.81529
8.63072
8.62802
8.39944
8.28055
8.05827
7.82581
7.63476
7.17808
7.11432
6.31759
6.57956
0.996389
1.00508
0.993883
1.00323
0.999221
1.00042
1.00356
0.994053
1.00783
0.993769
1.00432
0.995885
1.00479
0.998642
1.00023
1.00039
0.998724
1.00128
0.998589
1.0005
0.998888
0.999331
0.999879
1.00036
1.00048
1.00271
1.0166
0.987471
0.871691
2.11319
8.31862
8.89712
8.88845
8.71634
8.89023
8.7135
8.73076
8.58298
8.43952
8.36526
8.08436
8.01226
7.66951
7.61788
7.02378
7.10598
6.34971
6.55826
0.997769
1.00057
1.00034
0.998669
0.999962
1.00015
1.00141
0.999107
1.00061
1.00057
1.00069
0.998674
0.999962
1.0024
0.999207
1.00156
0.997986
1.00221
0.999593
0.997092
1.00496
0.995132
1.00642
0.992206
1.00744
0.992376
1.00953
0.989253
0.967557
1.39286
6.50613
8.78971
8.77277
8.73115
8.83464
8.65429
8.65508
8.44755
8.40711
8.24333
8.05554
7.95935
7.64662
7.48188
7.0825
7.0656
6.30257
6.54466
1.00363
0.998879
0.999438
0.999774
0.997328
1.00256
0.99606
1.00547
0.993517
1.0073
0.996346
1.00256
0.995832
1.003
1.00022
0.9975
1.001
0.999872
0.998203
1.00168
1.00063
1.00054
0.998913
0.999626
0.999456
1.00173
1.0032
1.03442
0.970562
0.599082
3.35632
8.91812
8.87093
8.84257
8.73297
8.60437
8.49098
8.42195
8.29539
8.17573
7.9452
7.81393
7.53491
7.51399
6.97499
6.98758
6.32451
6.52301
1.00276
0.998827
1.00024
0.996851
1.00235
0.998762
0.996966
1.00407
0.995906
1.00435
0.996043
1.00202
0.999504
0.999182
1.00339
0.996592
1.00504
0.99572
1.00481
0.995085
1.00378
1.00055
0.997617
1.00289
0.995414
1.00405
0.994781
1.01997
0.985139
0.878948
1.73038
7.4934
8.75665
8.59087
8.56853
8.47664
8.42709
8.26861
8.2413
8.06474
7.91073
7.78873
7.54993
7.42123
7.02394
7.0225
6.32785
6.53218
0.99873
1.00457
0.995097
1.0024
0.999758
1.00226
0.996236
1.0002
1.0006
1.00356
0.99632
1.00271
0.999382
1.00234
0.995751
1.00253
0.999543
0.999657
1.00107
0.99594
1.00244
0.997231
1.00286
0.999676
1.00252
0.998747
1.00019
1.00143
1.01682
0.969517
0.808148
4.8224
8.83399
8.63021
8.59943
8.49272
8.32772
8.29277
8.17626
8.01377
7.81192
7.73454
7.39209
7.33173
6.89476
6.93998
6.26052
6.52918
0.99786
1.0045
0.998037
1.0025
1.00012
0.999663
1.00204
0.996734
1.00425
0.996635
1.00233
0.995508
1.00355
0.996119
1.00232
0.996059
1.00177
0.998091
1.00156
0.998021
1.00096
0.99907
1.0039
0.995947
1.00129
1.0002
0.99914
1.00247
1.01197
0.992066
0.897808
2.33398
7.93577
8.54982
8.51872
8.28552
8.3047
8.18113
8.03416
7.92843
7.81095
7.64449
7.3912
7.35566
6.92457
6.97158
6.37547
6.54826
0.996473
1.00179
0.998561
1.00316
0.999321
0.998462
1.00017
1.00277
1.00086
0.996865
1.00044
0.999279
1.00256
0.996853
1.00123
1.00398
0.998217
1.0009
0.998049
1.00374
0.996743
1.00177
0.999298
1.00129
0.997669
1.00057
1.00959
0.989295
1.0098
0.990102
0.917582
1.2969
5.77203
8.49644
8.35432
8.34244
8.28862
8.1552
8.03429
7.96262
7.66825
7.61989
7.31076
7.24787
6.83936
6.81683
6.21582
6.48703
1.00037
0.997964
1.00276
0.997099
1.00393
0.996402
1.00385
0.996876
1.00412
0.997664
1.00282
0.999546
1.00003
0.999955
0.998171
1.00138
0.99751
1.00096
0.998257
1.00182
0.999458
0.998386
1.00221
0.998668
1.00292
0.997838
1.00295
0.999697
1.00583
1.02972
0.975339
0.90431
2.88705
7.99166
8.38262
8.33291
8.23941
8.10907
7.96357
7.7949
7.64481
7.55789
7.28801
7.21546
6.78563
6.92034
6.38846
6.5371
0.999666
0.999342
0.999975
1.00005
0.998168
0.998795
1.00323
0.996855
1.00405
0.995322
1.00313
0.999746
1.00194
0.999305
1.00243
0.997302
0.999859
1.0001
1.00039
1.00087
0.998211
1.00043
0.999323
0.999711
0.999202
1.00002
1.00209
1.00007
1.00334
1.01901
0.986249
0.890974
1.51917
6.22713
8.3578
8.25698
8.14384
8.07879
7.93642
7.8345
7.62153
7.54887
7.28003
7.23936
6.85846
6.8372
6.19111
6.4338
1.00542
0.995476
1.00354
0.995219
1.00091
0.998465
0.999964
0.998976
1.00008
1.00105
0.99782
1.00164
1.00037
1.00206
1.00088
1.00035
1.00015
1.00004
1.0018
1.0009
0.999482
0.998819
1.0004
0.999586
0.999178
0.999599
1.00059
0.999595
0.999573
0.998328
1.03602
0.968844
0.840172
3.28739
8.14852
8.18448
8.22613
8.07204
7.90093
7.8017
7.54997
7.49199
7.23448
7.1737
6.70747
6.82392
6.33356
6.52945
1.00173
0.996087
1.00153
0.999461
1.00113
0.99988
1.00079
0.999083
0.998609
1.00157
1.00087
0.998123
1.00114
0.9987
1.00076
0.998843
1.00325
0.998612
1.00286
0.994969
1.00516
0.995111
1.00598
0.998662
1.00244
1.00095
0.998889
1.00147
0.998154
1.00175
1.01156
0.98462
0.886696
1.6808
6.50864
8.14586
8.05667
7.84203
7.81683
7.78653
7.55289
7.49087
7.19619
7.16715
6.81558
6.86931
6.28138
6.45639
0.999445
1.00252
0.999715
0.997283
1.00162
1.00182
0.996677
1.00062
1.00024
0.998669
1.00062
1.00034
1.00054
0.998786
1.00002
0.999859
1.00151
0.999743
0.999711
0.999558
1.00107
1.00031
0.999316
0.999845
1.00048
1.00041
0.999202
0.998407
1.00048
0.999141
1.00589
1.03818
0.964869
0.774857
3.5093
8.10576
8.03563
8.02913
7.91884
7.78985
7.52011
7.42448
7.1792
7.16718
6.68374
6.76633
6.29604
6.53013
1.00198
0.999687
0.999926
1.00076
0.996642
0.999891
1.00257
0.998449
1.00177
0.997559
1.00314
0.996566
1.00194
0.997562
1.00347
0.997315
1.00159
0.999913
1.00271
0.9984
1.00096
1.00161
1.00113
1.00049
1.00044
0.999256
1.00216
0.997829
1.00197
0.99776
1.00215
1.01473
0.98522
0.888499
1.75666
6.44341
7.95652
7.84663
7.64976
7.59232
7.43947
7.4351
7.15637
7.11511
6.74451
6.82363
6.24655
6.4651
1.00002
1.00018
1.00022
0.998149
1.00372
0.999315
0.999015
0.997146
1.00218
1.00149
0.997868
1.00308
0.996157
1.00424
0.99854
1.00042
0.999248
1.00102
0.999036
1.00007
1.00006
0.997494
1.00009
0.998179
1.0022
0.998387
1.00032
0.998657
1.00061
1.00008
0.999655
1.00605
1.03497
0.969509
0.827689
3.49585
7.87402
7.88889
7.79476
7.75832
7.53385
7.37221
7.07987
7.11348
6.67384
6.74042
6.32167
6.58081
1.00235
0.995536
1.00502
0.993195
1.00473
0.996449
1.00378
0.999404
0.999088
1.00375
0.995977
1.00343
0.999657
1.00216
0.99972
0.998261
1.00279
0.997194
1.00249
0.99703
1.00304
0.997978
1.00175
0.997691
0.998791
1.00081
0.998161
1.00237
0.997951
1.00279
0.997564
1.00132
1.01297
0.98716
0.896039
1.74253
6.15933
7.84614
7.64903
7.51246
7.27946
7.2979
7.01759
7.08612
6.74792
6.80168
6.28871
6.52422
1.00246
0.997734
0.999946
1.00049
1.00071
1.00074
0.998268
1.00319
0.997946
1.00338
0.995449
1.00383
0.997185
1.00194
1.00033
0.999242
0.998552
1.00092
1.00041
0.998822
0.996573
1.00336
0.999982
1.00037
0.997301
1.00076
0.997254
1.0001
1.00006
1.00099
0.99982
0.99921
1.00417
1.02278
0.98279
0.959104
3.28366
7.43146
7.61857
7.57484
7.43307
7.35126
7.03242
7.0742
6.6747
6.77
6.35941
6.64707
1.00238
0.997677
1.00111
1.00035
0.999606
0.999063
0.999483
1.00111
0.99893
1.00095
0.999643
0.99789
1.00198
0.997867
1.00163
0.998407
1.00063
0.998779
1.00085
1.0004
0.996285
1.00155
1.00096
1.00011
0.997769
1.00068
1.00137
0.999782
0.99947
1.00198
1.00325
1.00127
1.00406
1.01251
0.989991
0.90607
1.57029
5.5453
7.70036
7.53667
7.27194
7.28633
6.96662
7.03981
6.71203
6.80655
6.29964
6.54316
0.99865
1.00251
1.00306
0.999366
0.998693
1.0051
0.996604
0.999064
1.00107
0.999421
0.996795
1.00041
0.998732
1.0008
0.996227
1.00523
0.996708
1.00222
0.998531
1.0047
0.995141
1.00377
0.996065
1.00367
0.996875
1.00143
0.996141
1.00087
0.997458
0.999761
0.999449
0.998907
0.998873
0.999634
1.02524
0.974711
0.952762
2.86555
6.99536
7.45123
7.33825
7.31806
6.96222
7.01887
6.63192
6.76535
6.34078
6.66842
1.00085
0.999231
1.00072
0.998386
1.00076
0.998859
1.00005
0.999013
0.99842
1.00053
0.999223
1.00198
0.99716
1.00195
0.998577
1.00114
1.0016
1.00064
1.00103
1.00175
1.00297
0.999846
1.00406
1.00199
1.00358
1.00195
1.00421
1.0029
1.00247
1.00269
1.00349
1.0043
1.00327
1.00443
1.01025
0.996514
0.940117
1.29861
4.74401
7.48397
7.32561
7.28731
6.94921
7.01235
6.72748
6.84075
6.29097
6.51894
1.00176
0.996944
0.99856
1.0011
0.998374
1.00076
1.00062
1.00252
0.999453
1.00209
0.999374
1.00129
0.998744
1.00145
0.998459
1.00127
0.998148
1.0012
0.997455
1.00093
0.996965
1.00057
0.99641
1.00046
0.99616
1.00083
0.995497
1.00075
0.99473
1.00099
0.99395
1.00128
0.992827
1.00207
0.994436
1.01382
0.972941
0.92389
2.29218
6.27174
7.24355
7.21661
6.96833
7.05442
6.65039
6.77457
6.36963
6.62355
0.99813
1.00228
0.99783
1.00168
0.99975
1.00083
0.998882
1.00349
0.996921
1.00332
0.9987
1.00178
0.997595
0.999815
1.00034
0.997294
1.00157
0.995006
1.00278
0.992874
1.00301
0.992474
1.00236
0.992307
1.00181
0.989992
1.00394
0.988033
1.00317
0.986181
1.00419
0.982203
1.00519
0.978151
1.00627
0.972265
1.01
0.965567
0.957919
3.6326
7.18271
7.32168
7.1096
7.14401
6.82481
6.89455
6.30408
6.61679
0.999309
0.998652
0.999687
0.998229
1.00318
0.99603
1.00354
0.998779
1.00062
0.998242
1.00101
0.998847
1.00138
0.998753
1.00174
0.998579
1.00191
0.998499
1.0018
0.998579
1.00176
0.998165
1.00261
0.997568
1.00256
0.997277
1.00267
0.996667
1.00256
0.996003
1.003
0.99513
1.00309
0.994029
1.00441
0.99482
1.01759
0.988664
0.917612
1.74467
5.48413
7.26335
7.12331
7.12505
6.69253
6.78041
6.3494
6.5772
0.99656
1.00364
0.998686
1.00073
0.998732
1.00062
0.997502
1.00263
0.999735
0.997513
1.00292
0.998896
1.00006
1.00026
1.00362
0.997722
1.00344
1.00083
1.00175
1.00114
1.00074
1.00207
1.002
0.99979
1.00501
0.997516
1.00479
0.998804
1.00389
0.999028
1.00471
1.00034
1.00298
1.00296
1.00148
1.00529
1.00298
1.00221
0.982855
0.997213
2.87499
6.53844
7.03101
7.05963
6.72691
6.83331
6.25872
6.64585
0.999188
1.00182
0.996949
1.00088
0.999316
0.999235
1.00117
0.996565
1.0003
0.995797
1.0041
0.996361
1.00411
0.993456
1.0047
0.995081
1.00411
0.993622
1.00271
0.99846
1.00058
0.995959
1.00509
0.995269
1.00657
0.990419
1.00795
0.994172
1.00626
0.994731
1.00392
0.997884
1.00376
1.00159
0.999413
1.00746
0.994867
1.01484
0.995384
0.948766
1.26861
4.28203
6.94376
7.06705
6.69862
6.86858
6.47121
6.73349
1.00248
0.995682
1.0031
0.998686
1.00083
0.997572
1.00267
0.99553
1.00247
0.999803
0.998569
0.999386
1.00196
0.99761
1.0008
1.00007
1.00311
0.996176
1.00451
0.998867
1.00173
0.999193
1.00176
0.999579
1.00224
0.999514
1.00233
0.999273
1.00206
0.998875
1.00183
0.998605
1.00204
0.998021
1.00192
0.997543
1.00273
0.999361
1.01765
0.98338
0.926405
2.02919
5.53548
6.94008
6.79338
6.89518
6.31363
6.6801
1.00225
0.999578
0.997666
1.00095
0.998429
1.00128
1.00149
0.998732
1.00485
0.995305
1.00224
0.99724
1.00569
0.993097
1.0054
0.996514
1.00681
0.99275
1.00667
0.99603
1.00015
1.00124
0.997356
1.00103
0.997461
1.00296
0.99343
1.00713
0.990207
1.0077
0.989384
1.0069
0.987114
1.00955
0.982397
1.01256
0.979234
1.01562
0.97493
1.02327
0.968994
1.03245
3.02989
6.34129
6.76581
6.86316
6.43672
6.65207
1.00066
0.998982
1.00213
0.997981
1.00028
1.00088
0.999135
0.997856
1.00081
1.00083
0.998709
1.00016
0.997931
1.00208
0.997782
1.0028
0.999343
1.00182
0.998434
1.00065
0.998398
1.00126
0.998965
1.00132
0.9992
1.00197
0.999387
1.00276
0.999693
1.00331
0.999974
1.00369
0.999871
1.00416
0.999943
1.00487
1.00009
1.00596
1.00095
1.01091
0.994692
0.948426
1.35362
4.24699
6.66629
6.89491
6.3377
6.71857
0.99627
1.00504
0.996269
1.00399
0.998748
0.997823
1.00583
0.992843
1.00389
0.998196
1.00168
0.995557
1.00762
0.990819
1.00654
0.998879
1.00313
0.998857
1.00102
0.99891
1.00028
0.998635
1.00028
0.998489
1.00057
0.998774
1.00074
0.998779
1.00111
0.998913
1.00137
0.998837
1.00146
0.99873
1.00166
0.998648
1.00191
0.998527
1.00222
0.998824
1.00739
0.985789
0.954326
2.02749
5.29347
6.73397
6.49548
6.67578
0.999394
1.00127
0.999941
0.998887
1.0001
1.00115
0.999715
0.998163
1.00042
0.998521
1.00123
0.997918
1.00188
0.998664
1.00203
1.00033
0.999872
1.00032
0.998925
1.0014
0.998725
1.00269
0.998418
1.00257
0.996572
1.00363
0.99509
1.00469
0.995259
1.0063
0.993468
1.00778
0.992089
1.00931
0.99063
1.01148
0.98805
1.01392
0.984894
1.01656
0.981046
1.0209
0.974779
1.04073
2.88973
6.03646
6.47838
6.62997
0.99856
1.00307
0.99733
1.00363
0.99469
1.0044
0.994092
1.00557
0.995912
1.00147
1.00064
1.00469
0.990852
1.00472
0.996302
1.00304
0.995823
1.00343
0.99935
1.00132
0.999123
1.00043
0.998614
1.00027
0.998519
1.0005
0.998289
1.00081
0.998321
1.00097
0.998483
1.00164
0.998599
1.00239
0.999063
1.00322
0.999239
1.00396
0.999492
1.00494
1.00025
1.00879
0.995187
0.960744
1.27983
3.84978
6.28259
6.59033
1.00216
0.997866
1.0015
0.997448
1.00248
0.9973
1.00255
0.997859
0.999293
1.00054
1.00115
0.999687
1.00054
1.00186
0.998507
1.00056
0.999378
1.0033
0.999055
0.99972
1.00362
0.996639
1.00576
0.995227
1.00585
0.997349
1.00267
1.00066
1.00237
0.997719
1.00411
0.99855
1.0013
0.999774
1.00205
0.99916
1.0011
0.998262
1.00098
0.99769
1.0009
0.996956
1.00172
0.988205
0.963777
1.77134
4.73546
6.4861
0.995749
1.00302
0.999118
1.00101
0.99781
1.00396
0.996791
1.00607
0.995518
1.00438
0.992028
1.0077
0.994076
1.00067
0.999062
1.00064
0.994452
1.00414
0.998241
0.997984
0.999312
1.00377
0.998622
1.00051
0.996974
1.00232
0.998269
1.00114
0.998043
1.00263
0.99639
1.00102
1.00089
1.00163
0.996593
1.00563
0.994827
1.00731
0.991989
1.01233
0.993044
1.01522
0.989609
1.02051
0.988302
1.02253
2.52277
5.44077
1.00025
0.999767
1.00128
0.997794
1.00314
0.997922
1.0003
1.00149
1.00108
0.999286
1.00069
1.00064
0.999229
1.00073
1.00163
1.00016
0.999767
1.0016
0.996882
1.00523
0.996344
1.00292
0.99681
0.999338
1.00101
0.999581
0.996872
1.00159
0.997661
0.99855
0.99753
1.00179
0.998248
1.00071
0.998344
1.00055
1.00012
1.00063
1.00205
1.00012
1.00279
0.999675
1.00422
0.997945
1.00434
0.975334
1.15988
2.57666
0.997925
0.99962
0.99882
1.00072
0.998714
1.00113
1.00253
0.996262
1.00185
1.00034
1.00244
0.995206
1.00507
0.995728
1.00091
1.00004
0.998659
1.00452
0.996288
1.00247
0.998839
1.0012
0.99652
1.00388
0.998355
1.00062
0.999339
1.00242
0.99913
1.00114
0.996973
1.00012
0.999389
1.00213
0.998406
1.00176
0.997347
1.00288
1.00049
0.997404
1.00244
0.997923
1.00213
0.992737
1.00109
0.994993
0.975259
0.903481
1.00269
0.997991
1.00081
0.999468
1.00074
0.997993
1.00157
0.998259
0.999838
0.998683
0.99998
1.00061
0.996963
1.00121
0.999972
0.998489
1.00047
0.999844
0.999325
1.00279
0.994995
1.00222
0.998145
1.00179
1.00154
1.00042
1.00153
1.00208
0.997377
1.00269
0.99786
1.00542
0.997969
1.00631
1.00018
1.00221
0.999132
1.00254
0.997875
1.00302
0.996099
1.00315
0.993644
1.00451
0.992856
1.02218
0.937978
0.227199
1.00208
0.999796
1.00112
0.997477
1.00228
0.995252
1.00301
0.997158
1.00204
0.99643
1.00254
0.999543
0.996421
1.00245
1.00017
0.99641
1.00483
0.99663
0.999388
1.00247
0.995415
1.00072
0.999212
1.00008
0.999793
1.00122
0.998521
1.00078
0.997709
1.00063
0.999192
1.00014
0.999482
0.998995
1.00284
0.999935
1.00178
0.999455
0.999889
1.00169
1.00086
1.00083
1.00179
1.00019
1.00556
1.02078
0.989378
0.856604
1.00023
0.99999
0.99984
1.00073
1.00184
0.999578
1.00137
0.998737
1.00138
0.998394
1.00263
1.0008
0.998976
1.0029
0.999411
0.998171
1.00274
0.997614
0.998779
1.00128
0.996667
1.00288
0.997637
1.00356
0.996008
1.00275
0.993192
1.00446
0.992692
1.00282
0.996158
1.00402
0.995957
1.00049
1
0.999379
0.999875
0.999419
0.999591
1.00205
1.00051
1.00128
0.99956
1.00065
1.00258
1.01097
1.05212
1.3061
1.0008
1.00141
0.997302
1.00425
0.998121
0.998732
1.00249
0.998535
0.998843
0.998221
1.00332
0.993679
1.0064
0.997443
1.00159
0.998582
1.00365
0.993346
1.00259
0.997331
0.998558
1.00367
0.998401
0.998932
1.00156
1.00086
0.997676
0.999942
1.00064
0.999221
0.999845
1.00064
1.00114
0.999071
1.00031
0.99782
1.00196
0.998368
1.00171
0.998262
0.999929
0.998457
1.00086
0.998891
1.00096
1.00035
1.01031
1.08587
1.00153
0.999539
1.00083
0.997315
1.00393
0.994622
1.00433
0.996628
1.00409
0.998397
1.00105
1.00191
0.998857
1.00001
0.998985
1.00248
0.99863
1.00323
0.995403
1.00626
0.995781
1.00281
0.995321
1.00602
0.998444
1.00056
0.999426
1.001
0.999573
0.998547
1.00022
1.00094
1.00079
0.997968
1.00071
0.998065
1.00075
0.999646
0.997977
1.0034
0.994049
1.00486
0.990683
1.01014
0.985819
1.01765
0.974079
0.59917
0.99918
0.998758
1.00525
0.995639
1.0007
0.998916
1.00556
0.994253
1.00444
0.996861
1.00108
0.997984
1.00386
0.995834
1.00289
0.9992
1.00465
0.992383
1.00462
0.994135
1.00496
0.998491
0.997481
1.0023
0.999427
0.999868
1.00237
0.998102
0.999268
1.00129
0.999914
0.99986
0.997961
1.00119
0.998652
1.00129
0.996764
1.00191
0.994585
1.00463
0.998913
1.00107
0.998448
1.00174
0.9996
1.00455
0.99735
0.291162
1.00354
0.995619
1.00624
0.994259
1.00424
0.994488
1.00468
0.999437
1.00228
0.995532
1.00441
0.997505
0.998185
1.00495
0.994731
1.0035
1.0013
0.997427
1.00015
0.998038
1.00141
0.998018
1.0014
1.00331
0.999478
0.998705
0.999631
1.00127
0.999524
1.00016
1.00148
1.00494
0.996911
1.00377
0.997101
1.00242
0.998665
1.00166
0.998285
1.0022
1.00061
1.0028
0.999713
1.00553
0.995018
1.01183
0.994171
0.287217
0.999786
1.00333
0.998964
0.995369
1.00518
0.994012
1.00307
0.999814
0.998777
1.00133
0.996992
0.999949
1.0019
0.999344
1.00046
1.00136
1.00045
0.999785
1.003
0.995658
1.00408
0.995051
1.00557
0.997372
0.995933
1.00251
0.998752
0.999536
1.00046
0.999967
0.998325
1.00011
0.99929
1.00166
0.996515
1.004
0.997082
1.00265
0.996682
1.00077
0.999771
0.997644
0.999864
1.00034
1.00292
1.01516
0.987624
0.334362
0.998228
1.00061
1.00045
0.997312
1.00416
0.996098
1.00645
0.99488
1.00466
0.992987
1.00356
0.997901
1.00077
1.00098
1.00264
0.998878
1.00053
0.999205
0.999264
0.998388
1.00346
0.996507
1.00411
0.998512
0.999534
0.99958
1.00056
0.999278
0.999483
1.00301
1.00101
1.00115
0.999254
1.00098
1.00014
1.00267
0.99899
1.00033
0.999032
1.00217
0.99904
1.00124
0.998946
1.0034
1.00566
1.01992
0.983996
0.372954
0.999715
1.0001
1.0035
0.996873
1.00004
0.998723
1.00077
1.00144
0.998498
0.999921
0.998721
0.997765
1.00172
0.999532
1.00443
0.997323
1.0009
0.999558
1.00077
0.997601
1.00316
0.996238
1.00539
0.996066
0.999814
1.0026
0.997019
0.999559
1.00228
0.996193
1.00329
0.99778
1.00042
0.999278
1.00079
0.998977
0.999659
1.00282
0.996228
1.00415
0.996851
0.997177
1.00175
1.002
1.00283
1.02053
0.975592
0.385904
0.999142
0.999903
1.00178
0.998733
1.00041
0.998378
1.00232
1.0003
0.997695
1.00055
0.998944
1.00103
0.999859
1.00039
1.00272
0.997061
0.998693
1.00192
1.00065
1.00033
1.00034
0.996711
1.00305
0.997452
1.00062
0.999292
0.99987
0.999045
1.00274
0.99873
1.00221
0.998277
0.999688
0.997226
1.0024
0.999855
0.999909
1.0002
1.00119
0.999977
0.999159
1.00018
1.00432
1.01994
0.971414
1.0244
0.977397
0.44962
1.00152
0.996595
1.00366
0.998304
0.999043