/*--------------------------------*- C++ -*----------------------------------*\
  =========                 |
  \\      /  F ield         | OpenFOAM: The Open Source CFD Toolbox
   \\    /   O peration     | Website:  https://openfoam.org
    \\  /    A nd           | Version:  6
     \\/     M anipulation  |
\*---------------------------------------------------------------------------*/
FoamFile
{
    version     2.0;
    format      ascii;
    class       volScalarField;
    location    "4";
    object      rho;
}
// * * * * * * * * * * * * * * * * * * * * * * * * * * * * * * * * * * * * * //

dimensions      [1 -3 0 0 0 0 0];

internalField   nonuniform List<scalar> 
16128
(
1.40022
1.39719
1.39984
1.40036
1.40147
1.39682
1.40173
1.3992
1.40328
1.4005
1.39909
1.40159
1.39856
1.39976
1.40052
1.39999
1.40051
1.40024
1.40023
1.40103
1.40238
1.40251
1.3898
1.05454
3.47206
5.59342
5.54441
5.58387
5.63018
5.68797
5.73082
5.7734
5.81099
5.8648
5.82389
5.75947
5.76287
5.7092
5.65667
5.72509
5.72183
5.78122
5.76319
5.75581
5.966
6.01068
6.02664
6.4566
1.40089
1.39781
1.40093
1.39806
1.40044
1.39844
1.40153
1.39924
1.40003
1.39844
1.40216
1.39868
1.40136
1.40197
1.40061
1.40087
1.39756
1.39876
1.39945
1.40124
1.40058
1.40334
1.4215
1.19132
3.69336
5.31779
5.28713
5.41994
5.48454
5.54886
5.62328
5.67269
5.62213
5.60049
5.57025
5.69729
5.67231
5.67008
5.61552
5.65956
5.63402
5.77506
5.77462
5.83847
5.76049
5.86752
5.85779
6.15393
1.3971
1.40288
1.3994
1.39972
1.39901
1.40185
1.39842
1.40182
1.39854
1.40294
1.40032
1.39938
1.39853
1.4001
1.40077
1.39929
1.40045
1.39836
1.40167
1.39835
1.40384
1.39713
1.40708
1.1068
3.47906
5.31283
5.35456
5.43584
5.49326
5.54562
5.60991
5.65741
5.63462
5.59479
5.62095
5.69155
5.69644
5.72962
5.76943
5.75702
5.71163
5.67309
5.68416
5.7351
5.77165
5.76009
5.85062
6.02859
1.39845
1.40097
1.39721
1.40249
1.39883
1.40168
1.39846
1.40303
1.3995
1.40165
1.39746
1.4004
1.40202
1.39983
1.40027
1.40066
1.40021
1.39849
1.39906
1.39956
1.40045
1.40228
1.39543
0.928227
3.16731
5.4929
5.42291
5.51148
5.56648
5.6178
5.63752
5.67533
5.69426
5.67375
5.67876
5.70958
5.7129
5.74165
5.69847
5.65459
5.63029
5.68503
5.65884
5.73947
5.74655
5.84802
5.8897
6.04085
1.40056
1.40278
1.39676
1.40312
1.3946
1.40577
1.39476
1.40323
1.39337
1.40449
1.39698
1.40313
1.3955
1.40565
1.39969
1.4004
1.3996
1.39749
1.39894
1.40327
1.40119
1.40626
1.40106
0.929319
2.84735
5.61331
5.5284
5.58081
5.62052
5.63522
5.64869
5.67114
5.7105
5.68606
5.65131
5.66831
5.70909
5.64314
5.59361
5.6581
5.65183
5.64865
5.68893
5.74298
5.75193
5.79069
5.88647
6.01771
1.40103
1.39871
1.39578
1.40234
1.40052
1.40197
1.39933
1.40118
1.39829
1.40039
1.40063
1.40176
1.39869
1.40405
1.39866
1.39987
1.40253
1.3987
1.40052
1.40237
1.39688
1.40823
1.39769
0.950362
2.77123
5.46888
5.3622
5.48069
5.53657
5.56802
5.58261
5.60505
5.63464
5.61583
5.55851
5.55405
5.5631
5.53005
5.50023
5.58605
5.7052
5.7184
5.68158
5.77985
5.79135
5.7983
5.92822
6.00278
1.4009
1.3982
1.39966
1.39793
1.40458
1.39711
1.40003
1.40078
1.40098
1.40175
1.39883
1.40138
1.39445
1.40471
1.39393
1.40583
1.39709
1.40271
1.39859
1.39948
1.39904
1.40631
1.38832
1.09997
2.24761
5.59696
5.54268
5.56849
5.59729
5.60956
5.60971
5.58964
5.56903
5.56167
5.50441
5.47796
5.42029
5.34605
5.38197
5.48306
5.65548
5.81597
5.84066
5.83467
5.82263
5.84156
5.88899
5.98851
1.40084
1.39864
1.39959
1.39937
1.4005
1.40196
1.40021
1.39911
1.39795
1.40233
1.39998
1.39915
1.40017
1.40285
1.39761
1.40084
1.40211
1.39988
1.39854
1.40587
1.39368
1.4127
1.39509
1.26029
1.85852
5.3004
5.42523
5.48239
5.53841
5.57976
5.59758
5.60015
5.6174
5.6243
5.58293
5.45739
5.34838
5.28623
5.30293
5.48013
5.61906
5.82182
5.90464
5.90276
5.86011
5.87898
5.8834
5.89775
1.39635
1.40482
1.39443
1.40547
1.39938
1.40093
1.39734
1.40142
1.40011
1.39587
1.40551
1.39428
1.4057
1.39561
1.4028
1.39818
1.40119
1.40182
1.39597
1.39929
1.39868
1.40299
1.39548
1.36019
1.66068
4.95605
5.35563
5.40978
5.48061
5.53592
5.57869
5.6133
5.64325
5.63453
5.60611
5.52293
5.44001
5.37472
5.42836
5.55179
5.6934
5.84711
5.94857
5.97262
5.89936
5.93616
5.95232
5.91852
1.39973
1.39708
1.40317
1.39587
1.40764
1.3917
1.40907
1.39719
1.40135
1.40124
1.39997
1.40209
1.39732
1.40433
1.39964
1.39427
1.40281
1.39426
1.4018
1.4014
1.40366
1.39662
1.38329
1.40451
1.57359
4.58313
5.31272
5.34752
5.41273
5.47639
5.5356
5.55225
5.60253
5.61469
5.60463
5.60279
5.54864
5.53299
5.58173
5.66731
5.74724
5.87246
5.97327
5.97431
5.91931
5.90078
5.88982
5.90431
1.3988
1.40004
1.40046
1.40032
1.399
1.3976
1.40161
1.40079
1.40172
1.40096
1.39656
1.3996
1.4006
1.40238
1.39956
1.39913
1.39936
1.40237
1.39809
1.40265
1.40037
1.40128
1.40693
1.45017
1.42514
4.14322
5.27869
5.2876
5.3675
5.42436
5.47003
5.50043
5.52325
5.56993
5.60038
5.60335
5.59142
5.61212
5.65978
5.73753
5.77982
5.86521
5.89669
5.9435
5.92178
5.90632
5.88546
5.95146
1.40086
1.39931
1.40342
1.39697
1.39845
1.4018
1.40053
1.39934
1.40027
1.39887
1.40382
1.39474
1.40607
1.3961
1.40491
1.39477
1.39895
1.40208
1.40029
1.39837
1.39849
1.40141
1.40354
1.42472
1.25261
3.73118
5.3075
5.32136
5.38821
5.41445
5.43626
5.46479
5.48541
5.49
5.5529
5.57606
5.58942
5.58408
5.62854
5.70505
5.75723
5.76371
5.86028
5.85163
5.83672
5.85601
5.86262
5.89805
1.39589
1.40251
1.40101
1.40021
1.39961
1.39991
1.39955
1.40127
1.40103
1.39596
1.40566
1.39494
1.40811
1.39515
1.40368
1.39579
1.39912
1.39966
1.40089
1.40136
1.40174
1.4033
1.39968
1.38821
1.04991
3.32324
5.35472
5.27903
5.2873
5.33799
5.38872
5.38613
5.44439
5.4702
5.5192
5.51332
5.55309
5.57563
5.59384
5.61228
5.65451
5.67118
5.73689
5.84203
5.78348
5.81877
5.74633
5.76237
1.40112
1.40302
1.39752
1.40161
1.3946
1.40592
1.39366
1.40504
1.39651
1.40213
1.39666
1.40171
1.40001
1.3996
1.39848
1.40069
1.40057
1.39863
1.40244
1.4008
1.40144
1.40242
1.40911
1.38952
1.09628
2.52551
5.5356
5.44524
5.47145
5.36275
5.36108
5.3589
5.39801
5.42414
5.47078
5.45352
5.53254
5.50313
5.58957
5.56189
5.61455
5.60884
5.74279
5.69699
5.75368
5.62994
5.59387
5.51855
1.40028
1.39983
1.40097
1.39975
1.39995
1.40283
1.39823
1.4002
1.39861
1.40308
1.39501
1.40503
1.39351
1.40542
1.39635
1.40224
1.39967
1.40116
1.40516
1.39377
1.39483
1.39863
1.40779
1.39556
1.29807
1.78543
5.1497
5.44804
5.44197
5.43139
5.39126
5.29986
5.34915
5.30148
5.39256
5.33173
5.48952
5.39954
5.55387
5.4503
5.55567
5.50147
5.5638
5.55889
5.54075
5.47104
5.45406
5.51358
1.39808
1.40231
1.39735
1.39936
1.40045
1.40036
1.40043
1.40145
1.40166
1.4003
1.3978
1.40352
1.39294
1.40091
1.39869
1.40462
1.39786
1.40446
1.3951
1.40339
1.40185
1.39846
1.39998
1.39807
1.38694
1.5341
4.58081
5.36867
5.37185
5.40125
5.43977
5.39996
5.42246
5.3499
5.34255
5.30793
5.33527
5.34034
5.46467
5.35954
5.49112
5.42399
5.55407
5.33605
5.54108
5.23043
5.33126
4.72226
1.40476
1.39615
1.40406
1.39706
1.40086
1.39608
1.39923
1.40194
1.40087
1.40221
1.39807
1.39911
1.39914
1.39971
1.40197
1.39875
1.40103
1.39588
1.4016
1.40581
1.39632
1.40041
1.39913
1.40537
1.43552
1.35183
3.9464
5.25139
5.26848
5.38943
5.42268
5.40129
5.45023
5.37156
5.37591
5.30639
5.34081
5.23076
5.38579
5.22771
5.43894
5.13949
5.43524
5.06291
5.46362
4.40291
5.11801
2.91964
1.39929
1.39866
1.40029
1.39943
1.40026
1.39917
1.40305
1.39654
1.40156
1.39749
1.40385
1.39641
1.40678
1.39647
1.40216
1.39862
1.40152
1.39813
1.40068
1.39945
1.40055
1.40034
1.40102
1.40048
1.41055
1.16737
3.48213
5.19699
5.156
5.18365
5.26745
5.32509
5.38038
5.38202
5.47165
5.33214
5.37288
5.21297
5.24424
5.21307
5.34376
5.19071
5.23988
5.0515
5.07661
4.62417
4.38657
3.391
1.39853
1.39986
1.40153
1.39883
1.40395
1.39835
1.40344
1.39531
1.40458
1.39785
1.40053
1.40078
1.39567
1.40349
1.39758
1.40272
1.39864
1.40069
1.39655
1.39852
1.40005
1.40094
1.40013
1.40458
1.3905
1.10652
2.6322
5.38507
5.31556
5.29899
5.26479
5.30948
5.3455
5.29171
5.46985
5.32554
5.41279
5.24978
5.28989
4.99687
5.18551
5.05991
5.21408
4.80954
5.00461
4.4129
4.18033
3.78679
1.39496
1.40296
1.39711
1.40153
1.3997
1.39698
1.40775
1.39302
1.40848
1.39449
1.40263
1.39622
1.39943
1.40076
1.40338
1.39863
1.40139
1.39868
1.40084
1.39819
1.39968
1.40479
1.39241
1.40898
1.39607
1.31547
1.77797
4.94449
5.36376
5.31016
5.31599
5.27693
5.32499
5.23222
5.31455
5.25921
5.37386
5.26308
5.39477
5.11945
5.07421
4.93654
5.02075
4.84485
4.77667
4.47636
3.98445
4.0183
1.39712
1.4028
1.39923
1.40557
1.39496
1.40189
1.39825
1.39983
1.39735
1.40003
1.40216
1.39883
1.40181
1.40108
1.40344
1.39902
1.40049
1.39963
1.40079
1.39585
1.40276
1.39893
1.40068
1.39949
1.39775
1.39138
1.45964
4.25043
5.25831
5.29827
5.33581
5.27064
5.33355
5.26592
5.2821
5.11938
5.28822
5.13905
5.29619
5.1673
5.18361
4.87271
4.94141
4.63345
4.73976
4.40223
3.88333
3.98073
1.39719
1.40347
1.39723
1.40445
1.39821
1.40153
1.39509
1.40205
1.39818
1.40079
1.40209
1.39752
1.40177
1.39877
1.40081
1.39817
1.40251
1.39837
1.39748
1.40446
1.40184
1.3978
1.40451
1.4007
1.4009
1.40654
1.21382
3.55221
5.18157
5.06493
5.1717
5.19462
5.27126
5.16049
5.31494
5.15703
5.24652
5.10852
5.12512
5.06663
5.11079
4.86777
4.88885
4.59402
4.48979
4.50703
3.94458
3.94744
1.40478
1.39278
1.40286
1.40001
1.4027
1.39372
1.40075
1.40039
1.39982
1.39828
1.40174
1.40219
1.3961
1.40467
1.39789
1.40405
1.39458
1.40551
1.39732
1.40047
1.39756
1.40296
1.39847
1.40065
1.4052
1.38971
1.14025
2.54693
5.38188
5.26879
5.34447
5.13236
5.23441
5.14345
5.21826
5.15234
5.21262
5.07595
5.19034
4.95823
5.0796
4.79968
4.86525
4.56732
4.29339
4.36968
3.98763
4.00825
1.4048
1.39209
1.40424
1.39649
1.40317
1.39873
1.39658
1.40345
1.39787
1.3998
1.39693
1.40817
1.39252
1.40494
1.39588
1.40484
1.3976
1.40412
1.39738
1.40296
1.39932
1.39971
1.39993
1.39679
1.40402
1.3935
1.33322
1.74657
4.79163
5.20577
5.25362
5.17689
5.21959
5.11592
5.12983
5.05809
5.11769
4.94376
5.06153
4.86205
4.95308
4.7891
4.74418
4.67001
4.30491
4.27998
3.85103
4.0037
1.39887
1.40177
1.39906
1.40042
1.40021
1.40176
1.39454
1.40887
1.39328
1.40313
1.39746
1.40117
1.39869
1.40224
1.39782
1.39954
1.39756
1.40312
1.39724
1.39985
1.40263
1.39785
1.40297
1.3988
1.40076
1.40513
1.41656
1.35933
3.94648
5.11414
5.10553
5.15245
5.16921
5.07107
5.24185
4.98899
5.2068
4.91012
5.04953
4.80894
4.84722
4.68106
4.61451
4.55763
4.38279
4.24681
3.85029
3.95666
1.40052
1.40061
1.39938
1.39862
1.40202
1.39798
1.4024
1.39775
1.40225
1.3985
1.40014
1.40146
1.39911
1.4003
1.40258
1.39782
1.3993
1.39896
1.39937
1.40137
1.39912
1.40075
1.40041
1.40207
1.40104
1.4056
1.39284
1.07296
3.03551
5.29091
5.30746
5.0844
5.14635
5.04839
5.20136
4.90578
5.07032
4.88581
4.9477
4.86102
4.78663
4.69988
4.51591
4.47646
4.2771
4.29923
3.81529
3.88024
1.39613
1.40636
1.39533
1.40563
1.39618
1.40292
1.39579
1.40262
1.39874
1.39713
1.40722
1.39519
1.40536
1.39327
1.40553
1.39751
1.40021
1.3998
1.39979
1.4024
1.39594
1.40987
1.39265
1.40429
1.39729
1.41054
1.39637
1.31627
1.98788
4.90933
5.23883
5.16108
5.17486
4.98678
5.25556
4.93352
5.04764
4.87877
4.85271
4.74025
4.76737
4.6325
4.55841
4.42372
4.27086
4.23728
3.88373
3.96546
1.39994
1.39833
1.40545
1.39644
1.4062
1.39409
1.40082
1.39563
1.40411
1.39735
1.40396
1.39497
1.40779
1.3958
1.40481
1.39632
1.40351
1.39617
1.40212
1.39583
1.40248
1.39694
1.40115
1.40138
1.39636
1.40197
1.39727
1.39962
1.45167
4.06251
5.10823
4.97581
5.16401
4.91104
5.13252
4.98511
5.03
4.94222
4.8766
4.74194
4.67072
4.59835
4.43976
4.38696
4.14765
4.18238
3.84301
3.93432
1.39892
1.40002
1.39801
1.40071
1.40149
1.40131
1.40056
1.40233
1.39781
1.39939
1.40197
1.39622
1.40583
1.39693
1.40173
1.39724
1.4048
1.39511
1.4049
1.39425
1.40517
1.39563
1.4027
1.39893
1.40035
1.40066
1.4078
1.39231
1.10136
2.97335
5.32505
5.07128
5.22549
4.96112
5.04417
4.9159
4.91238
4.85279
4.87869
4.74617
4.69977
4.58299
4.49355
4.3867
4.17356
4.13996
3.81321
3.94301
1.39737
1.40454
1.39361
1.40258
1.39986
1.40087
1.40301
1.39414
1.40791
1.39284
1.40506
1.39648
1.40615
1.3974
1.40189
1.39833
1.4005
1.39898
1.4002
1.39987
1.39888
1.39898
1.40132
1.40005
1.39987
1.4
1.40855
1.39575
1.31541
1.9468
4.8418
5.06138
5.10482
4.99824
5.06735
4.96992
4.95117
4.83652
4.8035
4.73215
4.61678
4.55307
4.42592
4.38832
4.12341
4.12985
3.80441
3.89792
1.39773
1.40254
1.39793
1.39968
1.39738
1.40511
1.39492
1.40428
1.3953
1.40644
1.39646
1.40315
1.39383
1.41114
1.39201
1.40803
1.39104
1.41024
1.39124
1.40418
1.39846
1.40188
1.40006
1.3989
1.40047
1.39854
1.40281
1.3961
1.38215
1.46414
3.9208
4.96251
4.96692
4.94757
5.01154
4.92908
4.95784
4.8304
4.83385
4.72925
4.64477
4.56422
4.43044
4.35712
4.18942
4.16856
3.82694
3.92471
1.40405
1.39857
1.39941
1.39924
1.39804
1.40187
1.39605
1.40629
1.39279
1.40773
1.39576
1.40318
1.39483
1.40311
1.39986
1.39847
1.40076
1.40024
1.39731
1.40279
1.39995
1.40148
1.39859
1.39945
1.39966
1.40128
1.3992
1.41847
1.38567
1.19609
2.64326
5.11134
5.07772
5.03488
4.99167
4.89508
4.86626
4.8173
4.78782
4.71872
4.61331
4.52115
4.37044
4.3505
4.12002
4.12493
3.83446
3.90923
1.40246
1.3984
1.39976
1.39895
1.40209
1.39789
1.3968
1.40493
1.39469
1.4048
1.39584
1.40274
1.39914
1.40088
1.4029
1.39596
1.40353
1.39658
1.40478
1.39539
1.4027
1.40181
1.39645
1.40484
1.396
1.40482
1.3962
1.41339
1.39332
1.34574
1.71959
4.46949
5.02495
4.93982
4.94896
4.86181
4.84717
4.76084
4.77137
4.69895
4.64015
4.56241
4.44143
4.35386
4.18392
4.16965
3.87588
3.95616
1.39665
1.40727
1.3923
1.40465
1.39741
1.40499
1.39427
1.40358
1.3987
1.40521
1.39442
1.40424
1.39835
1.40272
1.39661
1.40198
1.40078
1.39897
1.40245
1.39492
1.40331
1.39564
1.40431
1.3971
1.40458
1.39769
1.40047
1.3984
1.41705
1.37669
1.23951
3.29429
5.08475
4.98232
4.98199
4.88782
4.80925
4.75734
4.71459
4.64208
4.57168
4.52866
4.37235
4.31736
4.11477
4.12129
3.82454
3.93995
1.39792
1.40459
1.39808
1.4027
1.39999
1.4002
1.40106
1.39715
1.4048
1.39681
1.40194
1.39511
1.40388
1.39587
1.40249
1.39591
1.4026
1.39816
1.40153
1.39729
1.4019
1.39871
1.4049
1.39357
1.40306
1.3995
1.39973
1.40132
1.41186
1.39882
1.34814
2.1104
4.74762
4.99387
4.98867
4.85577
4.84966
4.76506
4.69064
4.63352
4.58512
4.52258
4.41019
4.37993
4.17367
4.17425
3.90342
3.97387
1.39685
1.40197
1.39888
1.40192
1.39924
1.39817
1.40115
1.40348
1.40052
1.39605
1.40054
1.39919
1.40167
1.39777
1.40212
1.40448
1.39812
1.40128
1.39805
1.40294
1.39432
1.40081
1.40007
1.40104
1.39868
1.40022
1.4018
1.39688
1.40246
1.39856
1.3601
1.50504
3.74663
4.97162
4.91982
4.88935
4.84994
4.76609
4.69562
4.63646
4.50412
4.47143
4.34376
4.31
4.12624
4.1012
3.82665
3.93469
1.39936
1.39927
1.4013
1.39794
1.4039
1.39705
1.40272
1.39741
1.40444
1.39758
1.40167
1.40077
1.40041
1.40014
1.39673
1.40143
1.39785
1.40204
1.39776
1.40217
1.39905
1.39859
1.40146
1.39948
1.40268
1.39828
1.40264
1.40001
1.40272
1.42607
1.37826
1.31138
2.41246
4.80112
4.95903
4.927
4.88624
4.80355
4.73604
4.63182
4.54967
4.48633
4.36659
4.32431
4.13343
4.17421
3.93164
3.97839
1.39842
1.39984
1.39944
1.40189
1.39828
1.39791
1.40299
1.39772
1.40342
1.39553
1.40364
1.39989
1.40211
1.40011
1.40053
1.39773
1.39833
1.40152
1.39957
1.40182
1.39823
1.40033
1.40072
1.40026
1.39803
1.40058
1.40168
1.40015
1.40107
1.41184
1.39316
1.34568
1.62646
3.96243
4.93048
4.87474
4.82395
4.77428
4.70991
4.65066
4.54562
4.48942
4.35821
4.32341
4.15585
4.1353
3.84462
3.94337
1.41069
1.388
1.41048
1.38742
1.40743
1.39344
1.40452
1.39402
1.40587
1.39459
1.40451
1.39627
1.40454
1.39705
1.40617
1.39533
1.4045
1.39573
1.40553
1.39723
1.40332
1.39511
1.403
1.39819
1.39986
1.39939
1.40061
1.39937
1.40001
1.39504
1.42872
1.37483
1.26385
2.62399
4.88983
4.89279
4.9038
4.82135
4.7372
4.68466
4.56632
4.52441
4.39128
4.33252
4.11712
4.14946
3.92778
3.99841
1.40283
1.39577
1.4017
1.39888
1.40121
1.39797
1.40332
1.39806
1.39875
1.40065
1.4025
1.39755
1.40189
1.39785
1.40243
1.39729
1.40455
1.39693
1.40436
1.39382
1.40671
1.39275
1.40818
1.39695
1.40446
1.39908
1.40061
1.39909
1.39998
1.39993
1.41187
1.39318
1.34552
1.72455
4.10697
4.85575
4.80874
4.704
4.6842
4.66041
4.55941
4.52079
4.38995
4.35335
4.18542
4.18078
3.91244
3.98056
1.39882
1.40312
1.39898
1.3981
1.4009
1.40206
1.39653
1.40135
1.39927
1.39959
1.40023
1.40059
1.40007
1.3993
1.39965
1.40011
1.40105
1.40059
1.39912
1.40013
1.40035
1.40087
1.39921
1.40035
1.3997
1.40113
1.39877
1.39883
1.39966
1.39955
1.40151
1.42869
1.37397
1.24199
2.75491
4.88972
4.85067
4.82194
4.7713
4.69121
4.57179
4.51705
4.40644
4.382
4.161
4.17556
3.94736
4.03485
1.4002
1.40135
1.39868
1.40136
1.39585
1.40232
1.40048
1.39931
1.40027
1.39882
1.40178
1.39836
1.40059
1.39869
1.40187
1.39894
1.40047
1.4012
1.40141
1.4003
1.39967
1.40254
1.39996
1.40222
1.39902
1.40024
1.40107
1.39936
1.40076
1.39885
1.40086
1.41511
1.39343
1.34103
1.78837
4.1127
4.80618
4.73902
4.65358
4.6104
4.53704
4.52057
4.39729
4.37318
4.19858
4.21643
3.94529
4.03194
1.39997
1.4004
1.39941
1.39799
1.40413
1.39802
1.39985
1.3975
1.40268
1.40184
1.39861
1.40274
1.39692
1.40375
1.39828
1.40037
1.39905
1.40009
1.39936
1.40024
1.40002
1.39728
1.4008
1.39822
1.40229
1.39788
1.40036
1.39821
1.40069
1.3997
1.3999
1.40234
1.428
1.37697
1.26953
2.75954
4.81158
4.80341
4.75063
4.71267
4.6033
4.5151
4.3767
4.38747
4.18296
4.20089
3.99584
4.09589
1.40326
1.39465
1.4055
1.39236
1.40629
1.39519
1.40461
1.39803
1.40057
1.40234
1.39674
1.40265
1.40102
1.40101
1.40098
1.3976
1.40383
1.39596
1.40372
1.39599
1.40398
1.39643
1.40333
1.39692
1.39969
1.39922
1.39943
1.40157
1.39919
1.4014
1.39859
1.40019
1.41318
1.39489
1.34014
1.80581
4.02479
4.79461
4.70529
4.62492
4.51039
4.49687
4.36231
4.38224
4.22879
4.24351
4.00615
4.10201
1.40154
1.39756
1.40055
1.40002
1.4002
1.40117
1.3979
1.40367
1.39865
1.40329
1.39566
1.40382
1.39685
1.40235
1.40004
1.39936
1.39902
1.40061
1.39981
1.39906
1.39637
1.4032
1.40008
1.40062
1.39672
1.40032
1.397
1.40012
1.39977
1.40114
1.39979
1.39942
1.40182
1.42266
1.38327
1.32824
2.65116
4.63991
4.71479
4.67968
4.61127
4.55094
4.39548
4.39241
4.20559
4.23343
4.03518
4.16257
1.40123
1.39902
1.39994
1.4011
1.39869
1.39965
1.39873
1.40194
1.39828
1.4027
1.39866
1.39825
1.40067
1.39874
1.40054
1.39872
1.40001
1.40022
1.4
1.40141
1.39601
1.4021
1.40036
1.40076
1.39797
1.40032
1.40124
1.39984
1.39931
1.4021
1.40325
1.4021
1.40289
1.41225
1.39731
1.34812
1.71176
3.75925
4.76091
4.67563
4.55667
4.54597
4.39668
4.41493
4.2537
4.28158
4.03454
4.13883
1.39905
1.40267
1.40311
1.39943
1.39864
1.40523
1.39683
1.39883
1.40143
1.3992
1.39715
1.40022
1.39905
1.40049
1.39646
1.4051
1.39677
1.40232
1.39842
1.4046
1.39535
1.40357
1.39615
1.40375
1.39691
1.40136
1.39624
1.40082
1.39736
1.39986
1.39936
1.39899
1.39875
1.39621
1.42335
1.37645
1.34948
2.45085
4.45371
4.66139
4.59494
4.56719
4.39989
4.41712
4.2305
4.28157
4.07154
4.20807
1.40304
1.40071
1.39872
1.40116
1.40087
1.39583
1.40295
1.39485
1.39886
1.39987
1.39883
1.40268
1.39633
1.40171
1.39829
1.39992
1.40128
1.40145
1.40077
1.40184
1.40342
1.3985
1.40421
1.40058
1.4052
1.40058
1.40534
1.40229
1.40388
1.40166
1.40454
1.40315
1.40395
1.40306
1.40971
1.40241
1.3688
1.56534
3.40461
4.70279
4.62154
4.5804
4.42357
4.43721
4.29837
4.33886
4.07792
4.16801
1.40129
1.39704
1.39826
1.40133
1.3982
1.40108
1.40012
1.40304
1.39889
1.40261
1.39897
1.40169
1.39824
1.40198
1.39792
1.40182
1.39765
1.40191
1.39688
1.40169
1.39639
1.40135
1.39577
1.4013
1.39552
1.40188
1.39479
1.40191
1.39393
1.40235
1.39306
1.40282
1.39175
1.40352
1.3921
1.40932
1.36698
1.35381
2.15404
4.14117
4.59534
4.56233
4.44103
4.46326
4.27554
4.3205
4.12349
4.23161
1.39842
1.40235
1.39831
1.40196
1.3974
1.40366
1.39561
1.40902
1.39021
1.41021
1.39216
1.40682
1.39559
1.40091
1.40005
1.39696
1.40036
1.39836
1.40019
1.39437
1.40367
1.39272
1.40111
1.39397
1.40031
1.39126
1.40499
1.38818
1.40197
1.38814
1.40501
1.38194
1.40495
1.37917
1.40673
1.37248
1.41133
1.36855
1.37171
2.89567
4.5954
4.64989
4.53953
4.53531
4.37334
4.38798
4.10692
4.24248
1.39999
1.3977
1.40048
1.39761
1.40405
1.39584
1.40397
1.3984
1.40092
1.39769
1.40144
1.39844
1.4019
1.39829
1.40232
1.39798
1.40251
1.39786
1.40235
1.39793
1.40228
1.39737
1.40339
1.39661
1.40337
1.39629
1.40357
1.39554
1.40349
1.39474
1.4041
1.39364
1.40421
1.39218
1.40553
1.39124
1.41401
1.39004
1.35655
1.8561
3.80252
4.6452
4.5691
4.55823
4.34256
4.36684
4.14562
4.24368
1.3961
1.40451
1.39845
1.40119
1.39847
1.40118
1.39717
1.40296
1.39982
1.39767
1.40292
1.39854
1.40018
1.40008
1.40394
1.39773
1.4034
1.40074
1.40171
1.40124
1.40057
1.40233
1.40157
1.40008
1.40486
1.39758
1.40466
1.39881
1.40395
1.39908
1.40513
1.40043
1.40335
1.40285
1.40152
1.40477
1.40265
1.40823
1.38482
1.38633
2.49598
4.31625
4.54239
4.54618
4.38214
4.41272
4.1358
4.29769
1.40011
1.4008
1.39685
1.40063
1.39983
1.39958
1.40057
1.39676
1.40122
1.39362
1.40824
1.39245
1.40772
1.39055
1.4062
1.39445
1.40412
1.39333
1.40328
1.39786
1.40083
1.39647
1.40376
1.39726
1.40522
1.39121
1.40729
1.39455
1.40535
1.39556
1.40428
1.39753
1.40354
1.40029
1.40189
1.40446
1.39854
1.41038
1.39885
1.37194
1.56471
3.23062
4.51656
4.56934
4.39679
4.45333
4.25882
4.36433
1.40286
1.3952
1.40343
1.39813
1.40121
1.39707
1.40314
1.39528
1.40255
1.39955
1.39868
1.39915
1.40221
1.39745
1.40095
1.39998
1.40366
1.3959
1.40507
1.3983
1.40209
1.39862
1.40222
1.39923
1.40284
1.39911
1.403
1.3989
1.40275
1.39845
1.4025
1.39813
1.4028
1.39742
1.40274
1.39684
1.40347
1.39668
1.40922
1.37669
1.35631
2.04068
3.86235
4.53487
4.45644
4.48753
4.20106
4.36287
1.40271
1.39988
1.39694
1.40128
1.39764
1.40156
1.40094
1.39898
1.40425
1.39602
1.40154
1.39803
1.40506
1.39352
1.40497
1.3966
1.40731
1.39138
1.40955
1.39245
1.40516
1.39621
1.40238
1.39722
1.39981
1.40174
1.39513
1.40379
1.39503
1.40331
1.39267
1.40456
1.39052
1.40477
1.38719
1.40907
1.38264
1.41127
1.37981
1.41959
1.37379
1.40722
2.60122
4.26738
4.45824
4.49912
4.28111
4.37041
1.39976
1.39994
1.40184
1.39845
1.40022
1.40148
1.39847
1.39847
1.39991
1.40164
1.39801
1.40013
1.39768
1.4024
1.39747
1.40318
1.39947
1.40237
1.39795
1.40093
1.39782
1.40166
1.39842
1.40158
1.39861
1.40236
1.39877
1.40332
1.39906
1.4039
1.39927
1.40425
1.399
1.40475
1.39896
1.40554
1.39896
1.40661
1.39909
1.41096
1.39873
1.37358
1.63059
3.24483
4.42487
4.53194
4.2662
4.42303
1.39771
1.40374
1.39644
1.40344
1.39922
1.39678
1.40652
1.39329
1.40431
1.39772
1.4021
1.39565
1.40779
1.39069
1.40674
1.39836
1.40381
1.39863
1.40156
1.39868
1.40056
1.39825
1.40048
1.39797
1.40078
1.39827
1.40098
1.39827
1.40147
1.39847
1.40185
1.39841
1.40202
1.39831
1.40231
1.39823
1.40266
1.39807
1.40299
1.3977
1.40697
1.38066
1.37559
2.05416
3.77664
4.48098
4.35332
4.4322
1.39871
1.40188
1.39922
1.39957
1.40047
1.4016
1.39926
1.39751
1.40032
1.40005
1.39873
1.39947
1.4012
1.39973
1.40273
1.39908
1.40042
1.39944
1.39961
1.40132
1.39913
1.40053
1.40002
1.40101
1.39838
1.40207
1.39758
1.40258
1.39726
1.40517
1.39597
1.40543
1.39337
1.40705
1.39307
1.41031
1.39085
1.41186
1.38709
1.41481
1.38397
1.41802
1.37696
1.4203
2.54626
4.15473
4.35628
4.42575
1.39871
1.40396
1.39704
1.40361
1.3945
1.4047
1.3936
1.40565
1.39636
1.40152
1.4013
1.40376
1.39047
1.40544
1.39528
1.40334
1.39577
1.40351
1.39865
1.40164
1.39887
1.40078
1.39835
1.40068
1.39824
1.40092
1.39779
1.40121
1.3978
1.40144
1.398
1.4022
1.39789
1.40292
1.39826
1.40381
1.3983
1.40458
1.39839
1.4055
1.39853
1.40889
1.39813
1.37995
1.59089
3.06586
4.27899
4.42759
1.40664
1.39569
1.40186
1.39774
1.40174
1.39755
1.40333
1.39728
1.40032
1.39986
1.40144
1.39776
1.40258
1.4
1.39846
1.39962
1.40035
1.40154
1.40073
1.39809
1.40327
1.39742
1.40605
1.39414
1.40723
1.39685
1.40162
1.40095
1.40289
1.39679
1.40433
1.39799
1.40204
1.39976
1.40266
1.39872
1.40153
1.39777
1.40153
1.39711
1.40158
1.39622
1.40414
1.3825
1.38486
1.91192
3.53416
4.39956
1.39632
1.40245
1.40022
1.40006
1.39812
1.40351
1.39702
1.40624
1.3952
1.40443
1.39292
1.40804
1.39329
1.40154
1.39649
1.40327
1.39132
1.40725
1.39487
1.40079
1.39744
1.40528
1.39674
1.4025
1.39454
1.40491
1.39578
1.40337
1.39604
1.40474
1.39464
1.40231
1.40058
1.40167
1.39672
1.40538
1.39529
1.40802
1.39107
1.41285
1.39344
1.41479
1.38991
1.42059
1.38908
1.41395
2.37447
3.88224
1.401
1.39963
1.40171
1.39696
1.40392
1.39679
1.402
1.40059
1.40168
1.39846
1.40193
1.39913
1.40113
1.39807
1.40324
1.39881
1.40079
1.40091
1.39687
1.40559
1.39567
1.40325
1.39662
1.39928
1.4007
1.4002
1.39668
1.40233
1.39713
1.39877
1.39704
1.40173
1.39788
1.40143
1.39834
1.40094
1.40012
1.40046
1.4023
1.39961
1.40337
1.39915
1.40524
1.39714
1.4083
1.36332
1.56431
2.51959
1.39755
1.39973
1.3985
1.40117
1.39841
1.4015
1.40242
1.39674
1.40176
1.40043
1.40228
1.39478
1.40467
1.39513
1.40141
1.39885
1.40025
1.40292
1.39829
1.40102
1.40011
1.4001
1.39806
1.40156
1.4007
1.39839
1.40074
1.40122
1.40154
1.39826
1.39994
1.39799
1.4018
1.39937
1.40236
1.39772
1.40172
1.39813
1.40583
1.39334
1.40633
1.39574
1.40559
1.3918
1.40609
1.38982
1.40404
1.40736
1.40692
1.38601
1.412
1.38625
1.40901
1.395
1.39805
1.40795
1.38783
1.41059
1.39427
1.40243
1.39836
1.40202
1.3979
1.40281
1.39761
1.39834
1.40495
1.39823
1.39585
1.40555
1.39502
1.40104
1.40432
1.39851
1.40056
1.40229
1.39874
1.40157
1.3987
1.40653
1.39764
1.40636
1.39939
1.40257
1.39864
1.40325
1.39688
1.40388
1.39482
1.40441
1.39213
1.40599
1.38899
1.42676
1.34418
0.893829
1.40256
1.39961
1.40172
1.39698
1.40263
1.39473
1.40295
1.39707
1.40178
1.3967
1.40194
1.39991
1.39631
1.40293
1.40005
1.3969
1.4046
1.39677
1.3994
1.40194
1.3955
1.40038
1.39927
1.39998
1.39959
1.40088
1.39834
1.40032
1.39724
1.40116
1.39871
1.4011
1.3988
1.40151
1.40192
1.40151
1.40295
1.39922
1.40044
1.40218
1.39989
1.40208
1.4002
1.40069
1.40264
1.41001
1.40179
1.06613
1.3996
1.39981
1.40104
1.39979
1.40198
1.4001
1.39937
1.3989
1.40358
1.39788
1.40353
1.40017
1.4007
1.40044
1.40191
1.39374
1.40635
1.39619
1.39832
1.40231
1.39421
1.40636
1.39669
1.40335
1.39683
1.40008
1.3937
1.40662
1.39347
1.40151
1.39745
1.40253
1.39553
1.40072
1.39993
1.39855
1.40057
1.40009
1.39935
1.4016
1.40014
1.40131
1.39979
1.40147
1.40396
1.40721
1.43686
1.29101
1.39917
1.40298
1.39724
1.40458
1.39648
1.40086
1.40006
1.40059
1.39697
1.4005
1.40089
1.39613
1.40558
1.39818
1.40083
1.39909
1.40357
1.3932
1.40216
1.39749
1.3988
1.40297
1.39916
1.3993
1.40201
1.40079
1.39767
1.40003
1.3999
1.39944
1.39948
1.40171
1.40024
1.39978
1.39977
1.39899
1.40082
1.39773
1.40269
1.39811
1.40008
1.39789
1.40113
1.39834
1.40097
1.3995
1.42006
1.1921
1.40123
1.40035
1.39964
1.39799
1.40381
1.39386
1.40487
1.3965
1.40447
1.39862
1.40132
1.40127
1.3983
1.40001
1.39904
1.40233
1.39872
1.40429
1.39472
1.40761
1.39471
1.40339
1.39546
1.40524
1.39911
1.39978
1.40057
1.40087
1.39886
1.39845
1.40113
1.40133
1.40079
1.39756
1.40128
1.39589
1.40406
1.39566
1.40301
1.39722
1.4019
1.39608
1.40116
1.39668
1.40067
1.40117
1.3949
0.97834
1.3976
1.39963
1.40443
1.39741
1.39908
1.39931
1.40454
1.39478
1.40486
1.39735
1.40109
1.39801
1.40378
1.3967
1.4022
1.40022
1.40406
1.39367
1.40295
1.39569
1.40445
1.39816
1.39781
1.40314
1.39869
1.40077
1.40146
1.39861
1.39896
1.40088
1.39914
1.40019
1.39843
1.40184
1.39873
1.40032
1.39649
1.40151
1.39434
1.40552
1.39907
1.40204
1.39832
1.4024
1.39848
1.40391
1.39971
0.91056
1.40466
1.39467
1.40486
1.39673
1.40048
1.39705
1.40535
1.39846
1.4038
1.39565
1.40216
1.39772
1.39758
1.40336
1.39453
1.4026
1.39976
1.39976
1.40003
1.39901
1.40279
1.39882
1.40007
1.40517
1.39865
1.40014
1.40011
1.40209
1.39759
1.39935
1.4009
1.4066
1.39608
1.40522
1.39741
1.40212
1.39663
1.40166
1.39922
1.40196
1.40183
1.40182
1.40216
1.40168
1.39621
1.40758
1.39849
0.934028
1.39902
1.40264
1.39921
1.39523
1.40502
1.39495
1.40259
1.40027
1.3972
1.40468
1.39465
1.40222
1.39966
1.40091
1.4001
1.40282
1.3989
1.40171
1.40051
1.3968
1.40386
1.39513
1.40501
1.39798
1.39539
1.40321
1.3986
1.39985
1.4002
1.40023
1.3971
1.40104
1.39828
1.40158
1.39704
1.4054
1.39565
1.40283
1.39719
1.40083
1.39958
1.39826
1.40005
1.4004
1.40075
1.40556
1.39514
0.978209
1.39603
1.40409
1.39855
1.39841
1.40407
1.39629
1.40684
1.39494
1.4049
1.39177
1.40469
1.39636
1.40049
1.40067
1.40067
1.3997
1.39922
1.4005
1.39978
1.39954
1.40292
1.3978
1.40289
1.39951
1.40061
1.39911
1.39974
1.40071
1.39898
1.40271
1.4021
1.40135
1.39741
1.40237
1.40009
1.40379
1.39664
1.4015
1.39968
1.40175
1.39822
1.40096
1.39958
1.40315
1.4031
1.40808
1.39509
1.02436
1.40019
1.40073
1.40002
1.39902
1.40037
1.39896
1.39912
1.40131
1.39758
1.4011
1.39732
1.39827
1.40112
1.39875
1.40536
1.39604
1.40084
1.40387
1.39926
1.39759
1.40086
1.3999
1.40451
1.39669
1.40063
1.40176
1.3975
1.39922
1.40121
1.39662
1.40696
1.39263
1.40429
1.39673
1.40547
1.39501
1.40128
1.40148
1.39619
1.40588
1.39412
1.39952
1.40236
1.40119
1.39877
1.40491
1.39057
1.08565
1.39871
1.4044
1.39763
1.40025
1.39966
1.39627
1.40245
1.40045
1.39561
1.40383
1.39669
1.40153
1.40254
1.39921
1.40105
1.40056
1.39752
1.40047
1.40109
1.40255
1.39761
1.39837
1.40248
1.39806
1.40061
1.39961
1.39843
1.39771
1.40497
1.39926
1.40039
1.39894
1.40124
1.39668
1.40197
1.40036
1.39976
1.40075
1.39932
1.39985
1.4002
1.40064
1.40142
1.40005
1.39076
1.40993
1.39433
1.11701
1.39651
1.40266
1.39939
1.4039
1.395
1.40316
1.39642
1.39869
1.39729
1.40556
1.39199
1.40854
1.39843
1.3982
1.40473
1.39427
1.40071
1.40634
1.39942
1.40256
1.39459
1.39602
1.40549
1.39562
1.40135
1.40634
1.39538
1.40097
1.40347
1.40247
1.40353
1.38845
1.40099
1.39714
1.4079
1.38861
1.4072
1.39173
1.40865
1.39716
1.40028
1.40478
1.39736
1.40659
1.39955
1.40491
1.39135
1.21146
1.39672
1.40289
1.39861
1.39894
1.40288
1.39976
1.40186
1.40003
1.39784
1.40187
1.39742
1.4031
1.39824
1.39939
1.39935
1.39963
1.40169
1.39669
1.40367
1.39745
1.39722
1.40297
1.39626
1.40361
1.3965
1.40096
1.40021
1.40218
1.40042
1.40081
1.40086
1.39691
1.40091
1.39656
1.40562
1.39441
1.40686
1.39666
1.3993
1.40099
1.40141
1.39866
1.39666
1.40464
1.39255
1.40983
1.39471
1.2133
1.39352
1.40928
1.39008
1.40715
1.39556
1.40715
1.39045
1.41429
1.38295
1.41194
1.38909
1.41086
1.39485
1.40139
1.40529
1.39032
1.40733
1.3975
1.40015
1.39728
1.4011
1.40191
1.40032
1.3983
1.40162
1.39787
1.40088
1.40529
1.39856
1.39761
1.40471
1.39914
1.39796
1.40199
1.40068
1.39063
1.40599
1.39678
1.4054
1.39552
1.40208
1.4062
1.39407
1.40429
1.39598
1.4055
1.39656
1.2914
1.39736
1.40325
1.39734
1.40104
1.40151
1.39844
1.40355
1.39964
1.4028
1.39807
1.3978
1.40155
1.39826
1.40051
1.4011
1.39559
1.4019