/*--------------------------------*- C++ -*----------------------------------*\
  =========                 |
  \\      /  F ield         | OpenFOAM: The Open Source CFD Toolbox
   \\    /   O peration     | Website:  https://openfoam.org
    \\  /    A nd           | Version:  6
     \\/     M anipulation  |
\*---------------------------------------------------------------------------*/
FoamFile
{
    version     2.0;
    format      ascii;
    class       volScalarField;
    location    "4";
    object      T;
}
// * * * * * * * * * * * * * * * * * * * * * * * * * * * * * * * * * * * * * //

dimensions      [0 0 0 1 0 0 0];

internalField   nonuniform List<scalar> 
16128
(
0.998781
1.00041
0.999157
1.00115
0.999986
0.999634
1.00042
1.0006
0.99952
0.999947
1.00061
1.0007
0.999213
1.00045
0.999221
0.999854
1.00001
1.0007
0.999788
1.00062
1.00433
1.01788
0.982677
0.825598
2.31625
2.64861
2.6441
2.66143
2.67515
2.68454
2.68922
2.70118
2.71497
2.71484
2.73994
2.74289
2.72252
2.75342
2.76359
2.74481
2.72504
2.70206
2.72941
2.75553
2.69936
2.72615
2.77706
2.78409
1.00013
0.999976
0.999821
0.999973
0.999274
1.00047
0.999644
0.999824
0.999358
1.00047
1.00011
0.999706
1.00004
1.00124
0.999597
1.00005
0.999482
0.999976
0.999714
1.00088
0.999622
1.00269
1.00114
1.22571
2.54712
2.71805
2.72075
2.74283
2.75331
2.75639
2.75434
2.76565
2.80574
2.84851
2.8597
2.78863
2.77681
2.77082
2.75944
2.74742
2.75316
2.723
2.70714
2.70901
2.72919
2.73083
2.7293
2.73333
0.998768
1.00138
0.998722
1.00125
0.998927
1.00135
0.998228
1.00163
0.99952
1.00104
0.998772
1.00073
0.999305
1.00063
1.00032
0.99968
0.999849
0.999244
1.0009
0.999284
1.001
0.998463
0.98886
1.08052
2.4789
2.70819
2.71895
2.73137
2.74202
2.74897
2.75165
2.75438
2.7869
2.82178
2.82809
2.80633
2.78972
2.76515
2.73617
2.73908
2.76249
2.76951
2.77257
2.7685
2.75957
2.73724
2.71473
2.68318
0.999042
1.00077
0.999536
1.00013
0.999865
1.00097
0.999747
1.00028
0.999845
1.00073
0.999043
0.999213
1.00064
0.99928
1.00074
0.999921
1.00016
0.999061
1.00044
0.999794
1.00044
1.01063
0.98885
0.598132
2.30316
2.67813
2.67866
2.69196
2.70284
2.71337
2.72107
2.72615
2.75311
2.79948
2.8142
2.8068
2.78502
2.74535
2.75275
2.77043
2.77648
2.78168
2.76794
2.7742
2.77831
2.76428
2.71293
2.69767
0.999
1.00112
0.999756
1.00062
0.999101
1.00188
0.997922
1.00158
0.996905
1.00106
1.0008
0.999983
0.999582
0.999785
1.00067
0.999957
1.00101
0.999162
1.00044
0.99865
1.00067
1.00176
0.997856
0.398319
2.10361
2.65776
2.65439
2.66547
2.67728
2.68855
2.70242
2.71252
2.73336
2.77408
2.81021
2.79585
2.74347
2.73662
2.7145
2.70486
2.73111
2.75898
2.76844
2.77103
2.77307
2.78808
2.76488
2.72548
0.999181
1.00161
1.00099
0.997861
1.0002
1.00123
0.998811
0.999858
1.00227
1.00071
0.998097
0.999809
1.00003
0.999068
0.998324
1.00016
0.997644
1.00163
0.993767
1.00723
0.992927
1.01061
0.990983
0.563138
2.21285
2.68206
2.67713
2.68724
2.69297
2.70956
2.72386
2.73081
2.73856
2.7593
2.79745
2.80023
2.76886
2.74376
2.73544
2.71893
2.70064
2.73835
2.76106
2.77563
2.77578
2.81075
2.77085
2.75471
0.99995
0.999654
1.00022
0.998982
1.00076
0.999879
0.999498
1.00115
0.999338
1.00114
0.998943
1.00161
0.997565
1.00244
0.99751
1.00167
0.999031
1.00067
0.999922
1.00048
1.0032
1.01927
0.977459
0.439818
1.72206
2.62889
2.6387
2.6567
2.67482
2.69765
2.71897
2.73857
2.74233
2.75409
2.79864
2.81618
2.81488
2.79812
2.77622
2.7571
2.72551
2.71378
2.74785
2.77497
2.78031
2.80366
2.80131
2.77478
1.00001
0.999572
0.999879
1.00061
1.0001
0.999431
1.00043
1.00036
0.99988
0.999351
1.00016
0.999642
1.0007
1.00036
0.999207
1.00111
0.995109
1.00801
0.990111
1.01564
0.983314
1.01591
0.985056
0.796544
1.64637
2.64177
2.65328
2.65279
2.66004
2.67554
2.69404
2.70813
2.72189
2.73687
2.76285
2.79791
2.81713
2.82488
2.79896
2.76378
2.72957
2.71633
2.7325
2.77548
2.79803
2.7889
2.77419
2.77464
0.999473
1.00084
0.998295
1.00141
1.00074
0.999257
1.00084
0.997685
1.00171
0.99795
1.00297
0.997603
1.00144
0.999032
1.00038
1.00036
1.00252
1.01071
0.988365
1.00868
0.987452
1.01161
0.990554
0.905805
1.60614
2.62851
2.6588
2.65743
2.66086
2.66899
2.67818
2.68513
2.69224
2.6999
2.71394
2.73967
2.77289
2.7788
2.76266
2.73908
2.72398
2.71732
2.73391
2.76196
2.78898
2.79718
2.78041
2.78085
0.999228
1.00239
0.996643
1.00282
0.996142
1.00174
0.997161
1.00247
0.99905
1.00202
0.996965
1.0009
0.999554
0.999423
1.00104
0.998839
1.00239
1.0004
1.00112
0.999006
1.0048
1.01474
0.975093
0.952365
1.50239
2.58023
2.66043
2.66383
2.66701
2.67033
2.67296
2.67194
2.67774
2.68193
2.68835
2.70634
2.71755
2.72212
2.71818
2.71756
2.71404
2.71389
2.72695
2.74717
2.77876
2.78827
2.77462
2.78723
1.00021
0.999694
1.00168
0.998284
1.00085
0.997612
1.002
0.998911
1.00102
0.999219
1.00171
0.998016
1.00148
0.999401
0.999533
1.00135
0.99872
1.00154
0.99824
1.00118
0.999949
0.998531
1.01036
1.06482
1.42979
2.54007
2.66939
2.66861
2.6701
2.6725
2.67312
2.67458
2.67489
2.67714
2.68128
2.68724
2.69157
2.698
2.70428
2.71036
2.71405
2.71524
2.71558
2.73166
2.75133
2.7845
2.78528
2.78364
0.999045
1.00001
1.00062
0.999724
0.999024
0.999881
1.0006
0.999877
0.999563
0.999763
1.00028
0.999927
1.00121
0.998632
1.00127
0.998655
1.0002
0.999777
0.999931
1.00042
0.998732
0.998745
1.00389
1.00879
1.19584
2.44602
2.65986
2.66145
2.66836
2.67175
2.67143
2.67245
2.67808
2.67737
2.67984
2.68371
2.68921
2.68879
2.69786
2.71034
2.71802
2.71848
2.7155
2.72716
2.75496
2.76561
2.7955
2.77975
1.00107
0.998964
1.00102
0.99908
0.999993
0.998989
1.00129
0.999248
0.999734
0.999171
1.00138
0.998841
1.00138
0.999485
0.999692
1.00064
1.00065
0.999837
1.00051
1.00009
1.00079
1.0062
1.02013
0.978826
0.85948
2.33222
2.65031
2.66938
2.68592
2.68823
2.68485
2.68095
2.67075
2.67145
2.67312
2.68023
2.68726
2.68739
2.69379
2.69502
2.71577
2.70716
2.71132
2.69854
2.74055
2.75496
2.75413
2.74962
0.999642
1.00095
0.998847
1.00113
0.997603
1.00208
0.998208
1.00184
0.999087
1.00003
0.999571
1.00041
1.0003
0.999353
0.99949
0.999512
1.00107
0.999327
1.00092
1.00019
0.999905
1.00408
1.01994
0.979661
0.401251
1.79991
2.59408
2.60531
2.63298
2.66119
2.68243
2.68958
2.68891
2.68206
2.68262
2.67313
2.68063
2.68476
2.69396
2.70179
2.71137
2.71204
2.70683
2.69666
2.73318
2.71555
2.72074
2.68773
0.99954
1.00044
0.999622
1.00103
0.999405
1.00061
0.999197
1.00075
0.999723
0.999337
0.999602
1.00248
0.997605
1.00056
0.999737
1.00057
0.999592
1.00088
1.0037
1.00256
0.998611
1.00082
1.01168
0.987216
0.901789
1.57661
2.55681
2.59106
2.59167
2.61097
2.64956
2.66661
2.6945
2.69943
2.69447
2.70271
2.68751
2.67513
2.6984
2.68425
2.69423
2.69502
2.70915
2.64606
2.67618
2.70149
2.68424
2.70638
0.999599
1.00021
1.00052
0.999453
0.999499
0.999712
1.00111
1.00087
0.999962
0.999407
0.999621
1.00033
0.999209
1.00132
0.999067
0.99972
0.999405
1.00011
1.00393
0.993326
1.00633
0.996657
1.00617
0.996152
0.972984
1.4786
2.53288
2.60715
2.59779
2.59387
2.59629
2.63625
2.66331
2.69989
2.70847
2.70129
2.73473
2.68837
2.69076
2.68334
2.68804
2.67067
2.6948
2.65231
2.66112
2.63621
2.64234
2.53425
1.00234
0.997632
0.998505
1.00125
1.00136
0.999956
1.00013
0.999871
0.997378
1.0008
1.00088
1.00111
0.999671
1.00107
0.999542
1.00085
0.999343
0.999758
0.999154
1.00234
0.998277
1.0013
0.999221
1.00717
1.03713
1.31593
2.45685
2.62326
2.60815
2.60303
2.59943
2.60249
2.61751
2.62955
2.67463
2.6815
2.71598
2.72186
2.69364
2.67056
2.69005
2.66148
2.66541
2.59175
2.64091
2.50388
2.57022
2.10679
0.999221
1.00111
0.998973
1.00118
0.998536
1.00167
0.998854
1.00046
0.998509
1.00095
0.999276
1.00082
1.00023
1.00036
0.999561
1.00095
0.999777
1.00028
0.99927
1.00048
0.999632
1.00063
1.00009
1.0002
0.992304
1.07569
2.37197
2.6319
2.64041
2.64937
2.62509
2.61897
2.6193
2.60907
2.62492
2.64835
2.67177
2.69691
2.72064
2.68694
2.64884
2.64853
2.65769
2.61263
2.52973
2.53125
2.41126
2.16144
1
0.999454
1.00144
0.998883
1.00131
0.998915
1.00173
0.9981
1.00169
0.998915
1.00053
0.999762
0.999257
1.00039
1.00077
0.99997
1.0001
0.998847
0.999644
1.0001
1.00008
0.999309
1.00254
1.01873
0.97946
0.419224
1.83813
2.56997
2.58346
2.62225
2.62881
2.62749
2.62335
2.62993
2.60513
2.60509
2.62996
2.63438
2.68842
2.72225
2.68378
2.62101
2.60324
2.60293
2.53192
2.50077
2.38992
2.23713
0.998275
1.00075
0.999064
1.00117
0.999879
0.999749
1.00193
0.998302
1.00162
0.999328
1.00038
0.999122
1.00099
0.998685
1.00054
0.999906
1.00033
0.998328
1.00044
0.999876
1.00182
1.01013
0.9885
1.01257
0.989689
0.914008
1.51619
2.49112
2.55418
2.56758
2.59302
2.61359
2.61605
2.62331
2.63234
2.60473
2.59302
2.59714
2.57652
2.65399
2.68186
2.67996
2.57944
2.58774
2.46375
2.49928
2.37433
2.28756
0.999543
1.00178
0.998877
0.99944
0.999222
1.00075
1.00004
1.00099
1.00047
0.998733
0.999317
1.00091
0.999367
0.998175
0.999391
0.999272
0.999216
1.00019
1.00083
1.00569
0.995486
1.00669
0.994211
1.00463
0.995307
1.00075
1.39443
2.44566
2.56831
2.55576
2.56336
2.56696
2.58521
2.58807
2.60428
2.62986
2.60453
2.61915
2.57326
2.56945
2.58893
2.64348
2.60568
2.60858
2.46648
2.44464
2.40853
2.34942
1.00145
0.999682
0.998958
1.00012
0.999201
1.00035
1.00002
0.998791
1.0011
0.999744
1.00096
0.998923
1.00151
0.99922
1.00094
0.998237
1.0009
0.998219
1.0015
0.998434
1.00139
0.998582
1.00216
1.00054
1.00047
0.995223
1.10754
2.341
2.59011
2.59563
2.59927
2.57942
2.57385
2.58369
2.55765
2.59684
2.58189
2.60094
2.58701
2.60696
2.53496
2.60534
2.53536
2.61838
2.4831
2.40409
2.35201
2.37658
1.00103
0.999325
0.999804
1.00007
1.0001
0.999737
0.99952
1.00094
0.998749
1.00125
0.998948
1.00169
0.996614
1.00221
0.998738
1.00259
0.996977
1.00182
1.00047
0.999857
0.999
1.00172
0.998537
1.00193
1.01936
0.978568
0.49873
1.77495
2.53802
2.54807
2.56514
2.61649
2.56987
2.60508
2.57837
2.57183
2.56416
2.57274
2.54273
2.59997
2.5212
2.58031
2.5067
2.55116
2.54275
2.44866
2.31451
2.34187
1.00111
0.998665
1.00176
0.998239
1.00191
0.999422
1.00008
0.999903
0.999568
1.0015
0.998062
1.00158
0.998048
1.00103
0.998808
1.00065
0.999747
1.00054
1.00042
0.996577
1.00721
0.995476
1.00848
0.988987
1.01166
0.992108
0.920608
1.48674
2.46103
2.52329
2.50612
2.53483
2.54776
2.55381
2.57338
2.59128
2.54594
2.61079
2.52349
2.6023
2.51805
2.54728
2.48131
2.46861
2.48047
2.5047
2.35206
2.35559
1.00218
0.997548
1.00298
0.995622
1.00368
0.996428
1.00336
0.996462
1.00128
1.00165
0.998276
1.00176
0.997194
1.00215
0.998966
1.00129
0.997811
1.00249
0.998416
0.999523
1.00012
1.00105
0.998682
1.00116
0.998131
1.00171
1.04057
1.36409
2.41265
2.56348
2.5708
2.54641
2.54566
2.53139
2.52765
2.58532
2.50766
2.58059
2.5122
2.56984
2.54957
2.55083
2.51609
2.45906
2.40835
2.4398
2.36809
2.38004
0.999741
0.99948
1.00129
0.999938
0.999982
0.99957
1.00126
0.999506
1.00033
0.999332
1.00039
0.999539
1.00042
0.999745
1.00121
0.998891
0.999441
1.00007
1.00022
0.999781
0.999144
1.00079
0.999738
1.00076
1.00331
1.0161
0.983212
0.4659
2.00322
2.53213
2.52095
2.56436
2.52411
2.57509
2.50632
2.59944
2.51414
2.56291
2.50798
2.51175
2.50144
2.51888
2.49924
2.48842
2.40155
2.41366
2.32986
2.37059
0.998698
1.00165
0.998947
1.00127
0.9994
0.999743
1.00041
0.999277
1.00071
0.997909
1.00239
0.998877
1.00071
0.999396
1.00118
0.999441
0.999758
1.00016
0.999652
1.003
0.996012
1.00361
0.995814
1.00596
0.995443
1.00978
0.990281
0.931698
1.55844
2.43894
2.48778
2.48515
2.49748
2.53192
2.46597
2.5355
2.51285
2.54181
2.54346
2.5296
2.51134
2.49333
2.47216
2.472
2.41554
2.39381
2.29888
2.34469
1.00095
0.998793
0.99969
0.999066
0.998985
0.998077
1.00183
1.00135
0.999889
0.998784
1.00154
0.999565
1.00154
0.997412
1.00217
0.999102
1.00278
0.998115
0.999158
1.00068
0.996629
1.00711
0.995644
1.00572
0.993832
1.00542
0.996274
1.01579
1.39761
2.39025
2.51932
2.5242
2.48188
2.54916
2.48653
2.50329
2.48211
2.47828
2.48697
2.50936
2.49205
2.49685
2.45493
2.47041
2.41928
2.41421
2.3159
2.33181
0.999296
1.00056
0.999035
1.00058
1.00012
1.00093
0.999983
1.0001
0.999867
0.999655
1.001
0.998519
1.00127
0.999115
1.00142
0.998625
1.00115
0.998643
1.00159
0.997905
1.00193
0.999008
1.00033
0.999108
1.00018
1.00379
1.0177
0.981276
0.517465
1.93542
2.49911
2.51025
2.46947
2.51381
2.51714
2.51215
2.51232
2.48992
2.47593
2.47763
2.46667
2.46163
2.4382
2.43661
2.40786
2.40584
2.31948
2.33614
0.998271
1.00184
0.998441
1.00139
0.999326
0.999798
1.00142
0.998233
1.00217
0.998882
1.00071
0.998398
1.0004
1.00051
0.998881
1.00159
0.99837
1.00201
0.998453
1.00059
0.999695
1.00006
0.998941
1.00033
1.00058
1.00271
1.01043
0.990481
0.927752
1.51966
2.40533
2.46099
2.43767
2.44145
2.45619
2.45456
2.46873
2.48447
2.45975
2.47486
2.45152
2.46365
2.42601
2.43033
2.38476
2.4089
2.33666
2.35551
0.999391
0.998756
1.00182
0.998899
1.00184
0.996517
1.00506
0.996063
1.00399
0.995998
1.00323
0.996438
1.00439
0.994488
1.00494
0.995855
1.00442
0.994937
1.00589
0.994125
1.00607
0.993801
1.00639
0.992987
1.0071
0.993414
1.00751
0.992016
0.980058
1.33185
2.32315
2.47972
2.47274
2.47064
2.46801
2.45808
2.44404
2.44837
2.43491
2.44028
2.42806
2.44141
2.41631
2.40403
2.3668
2.37297
2.30566
2.33459
1.00074
0.999902
0.999865
1.00032
0.99873
1.00123
0.998882
1.00097
0.998667
1.00177
0.999377
1.00029
0.999524
1.00078
1.00032
0.998595
1.00046
0.999705
1.00013
0.999693
1.00067
0.999485
0.999923
1.00002
0.999704
1.00081
1.00378
1.02095
0.980604
0.701218
1.77767
2.44269
2.44585
2.45877
2.44932
2.46087
2.44282
2.44759
2.42565
2.42567
2.41114
2.41964
2.41369
2.41803
2.37014
2.37159
2.30915
2.33607
1.001
0.99997
1.00041
0.997606
1.00086
1.00027
0.999251
1.00055
0.999704
1.00092
0.999013
1.00007
1.00012
0.998554
1.00132
0.999483
1.00252
0.99816
1.0014
0.998375
1.00185
0.999262
1.00016
0.999439
0.998273
1.00061
0.997495
1.01031
0.989862
0.914392
1.40879
2.3472
2.4397
2.43476
2.42394
2.44093
2.43399
2.43152
2.41814
2.40281
2.38679
2.39002
2.37985
2.38634
2.35032
2.35788
2.28568
2.3116
1.00113
0.999383
1.00061
0.999084
1.00161
0.998707
1.00034
0.997653
1.00153
0.999843
1.00031
0.999686
1.00057
1.00039
0.998172
1.00112
0.998992
1.0004
0.999329
0.999574
1.00007
1.00035
0.999784
1.00176
0.999257
1.0004
0.999856
1.00258
1.00459
0.985933
0.912788
2.04942
2.4323
2.42504
2.41655
2.43255
2.42426
2.44042
2.42795
2.41687
2.39227
2.39109
2.36691
2.37749
2.34587
2.35752
2.29171
2.32005
0.999351
1.00122
0.999412
1.00057
1.00013
0.999521
1.00128
0.998773
1.00082
0.998915
1.00095
0.999003
1.00078
0.99907
1.00054
0.998979
0.999919
0.999408
1.00047
0.999961
0.999612
0.999999
1.0004
1.00054
0.999109
1.00056
0.999337
1.00153
1.00347
0.992907
0.932347
1.54832
2.34015
2.3969
2.39067
2.38886
2.39741
2.40367
2.39794
2.39556
2.38497
2.36642
2.34632
2.35117
2.32276
2.33821
2.28663
2.30697
0.998722
1.00039
0.999365
1.00179
0.999869
0.999774
0.99935
1.00028
1.0005
0.999688
1.00006
0.999861
1.00137
0.998444
0.99972
1.00078
0.999563
0.999994
0.999446
1.00163
1.00081
1.00119
0.99925
1.00055
0.998611
1.00042
1.0083
0.991512
1.00803
0.991122
0.944506
1.20639
2.15684
2.39259
2.37734
2.38876
2.39263
2.39553
2.39543
2.40436
2.38351
2.38579
2.35628
2.3543
2.32055
2.32703
2.2741
2.30816
1.00083
0.998486
1.00183
0.998573
1.00115
0.998507
1.00191
0.998727
1.00094
0.999397
1.00163
0.998998
0.999739
0.999855
1.00051
1.00036
0.99905
0.999505
0.999864
1.00027
1.00014
0.999396
1.00117
0.999042
1.00101
0.999072
1.00107
0.999696
1.00388
1.0109
0.990729
0.965426
1.67542
2.33036
2.36653
2.36779
2.36076
2.3634
2.35409
2.35607
2.35243
2.35852
2.33666
2.33602
2.29831
2.32104
2.27484
2.30042
1.0008
0.999463
1.00038
0.998707
0.9994
1.0003
1.00109
0.998483
1.0016
0.998511
1.00053
0.999829
1.00043
0.999229
1.00205
0.998925
1.00105
0.999017
1.00071
0.999577
0.999482
1.00019
0.998816
0.999531
1.00061
0.999606
1.0009
0.999969
1.00258
1.01047
0.991093
0.926944
1.30765
2.20016
2.37319
2.37137
2.3635
2.36902
2.35908
2.35845
2.34735
2.35408
2.33859
2.34425
2.31045
2.31474
2.25447
2.28418
0.997807
1.00409
0.996086
1.00425
0.995628
1.00317
0.996753
1.00326
0.995906
1.00494
0.994619
1.00432
0.997135
1.00418
0.99649
1.0037
0.996953
1.0031
0.997866
1.00289
0.997122
1.00232
0.998262
1.00089
0.999283
1.00004
1.00015
1.00005
0.999566
1.00188
1.0152
0.986586
0.930687
1.75395
2.333
2.34188
2.34851
2.34393
2.33499
2.33153
2.31477
2.31827
2.30646
2.3181
2.28084
2.30235
2.25751
2.28622
0.999715
0.999111
1.00032
1.00026
1.00028
1.00134
0.998419
1.00047
0.999505
1.00111
0.999093
0.999878
0.999793
1.00024
0.99903
1.00079
1
1.00081
0.999753
0.999384
1.00037
1.00029
1.00014
1.00084
0.999258
1.00161
0.998458
1.00212
0.998173
1.0018
1.00305
0.989442
0.922598
1.36449
2.2187
2.3486
2.3456
2.33395
2.33628
2.3391
2.31918
2.31979
2.29494
2.3049
2.27978
2.30031
2.24769
2.27078
1.00029
1.00029
1.00045
0.998639
1.00098
1.00036
0.999156
0.999658
1.00076
0.998967
1.00046
0.999918
1.00049
0.999286
1.00028
0.999783
1.00077
0.999323
1.00035
0.99947
1.00083
0.999688
0.999885
0.999597
1.0007
0.999605
1.00008
0.999243
1.00072
0.999463
1.0048
1.01734
0.983152
0.87344
1.78337
2.32081
2.31925
2.33118
2.32356
2.32474
2.30286
2.30113
2.28096
2.28984
2.24881
2.26865
2.23301
2.26581
1.00184
0.998728
1.00087
0.999791
0.999609
0.998238
1.00223
0.998947
1.00158
0.998402
1.00188
0.997738
1.00153
0.998497
1.00213
0.998076
1.00125
0.999064
1.00171
0.998191
1.0012
0.999799
1.00117
0.998917
1.00114
0.999085
1.0014
0.998288
1.00143
0.998585
1.00154
1.0039
0.98987
0.92757
1.37519
2.1934
2.31768
2.31806
2.30139
2.3055
2.29562
2.30262
2.27844
2.27779
2.24894
2.26569
2.21662
2.24487
1.00004
0.999898
1.00064
0.999588
1.00077
1.00073
0.999127
0.998931
1.00027
1.00018
0.99886
1.00113
0.998355
1.00156
0.999775
1.00016
0.999928
1.00096
0.999493
0.999904
1.00005
0.999439
0.99952
0.999454
1.00056
0.999903
1.00007
0.999938
1.00012
1.0003
0.999732
1.00437
1.01468
0.985726
0.912751
1.77356
2.29107
2.2993
2.2971
2.30478
2.29128
2.28591
2.26469
2.26985
2.23368
2.24634
2.21489
2.24937
1.00003
0.99936
1.00109
0.998647
1.00024
0.999886
1.00048
1.00081
0.998682
1.00208
0.998306
1.00154
0.998932
1.00145
0.999023
0.999978
1.00005
1.00008
0.999836
0.999897
1.0002
1.00053
0.999381
0.999897
0.999015
1.00137
0.998573
1.00125
0.998536
1.00179
0.998575
1.00119
1.00352
0.990777
0.936067
1.35095
2.1425
2.29104
2.27588
2.27409
2.25951
2.27205
2.25217
2.26382
2.234
2.24399
2.19768
2.2267
1.00136
0.999483
0.999553
1.00048
1.00058
0.99991
0.99977
1.00058
0.998912
1.00103
0.998546
1.0011
0.999438
1.00026
1.0003
0.999703
0.999252
1.00049
1.00055
0.999494
0.999165
1.00108
0.999929
0.999932
0.999646
1.00054
0.999403
1.00001
1.00023
1.00018
0.999972
0.999631
1.00287
1.00649
0.99468
1.01093
1.73401
2.2423
2.26225
2.26614
2.25672
2.26147
2.2399
2.25478
2.22195
2.23885
2.2064
2.23562
1.00151
0.998377
1.00116
0.999563
1.00054
0.999316
1.00039
0.999723
1.00016
0.999028
1.00061
0.99914
1.0015
0.998768
1.00124
0.999321
1.00063
0.998623
1.00085
0.999401
0.999133
1.00005
1.0007
0.999569
0.999218
1.00045
1.00048
0.999902
0.999964
1.00048
1.00093
0.999773
1.00199
1.00373
0.991901
0.940943
1.2843
2.06516
2.26439
2.25668
2.23425
2.24394
2.21833
2.23237
2.20911
2.22563
2.18601
2.21329
0.999333
1.00061
1.00084
0.99978
0.999669
1.00136
0.998871
0.999901
1.00005
0.999997
0.998828
1.00025
0.99941
1.00046
0.998753
1.00158
0.999015
1.00056
0.999661
1.00141
0.99846
1.00122
0.998818
1.00099
0.999081
1.00047
0.99883
1.00029
0.999347
0.999865
0.999909
0.999633
0.999768
1.00235
1.00842
0.991393
0.988437
1.63689
2.19896
2.23791
2.23585
2.24325
2.21531
2.22463
2.19471
2.21216
2.18029
2.21855
0.998686
0.998731
1.00163
0.997563
1.00015
1.00184
0.99795
1.0027
0.999235
1.00063
1.00006
1.00008
0.999784
1.00073
0.999803
1.0012
1.00069
0.999607
1.00048
1.00044
1.00053
1.00092
1.00106
1.00158
0.999869
1.00154
1.00039
1.00127
0.999701
1.00151
1.00026
1.00205
1.00045
1.00225
1.00329
0.994806
0.961547
1.16145
1.95078
2.22795
2.21915
2.22738
2.19934
2.2125
2.19118
2.20728
2.15977
2.18966
1.00084
0.999057
0.99981
1.00015
0.999663
0.999993
1.00054
1.00035
1.00025
1.00023
1.00011
1.00008
1
1.00004
0.999947
0.999976
0.999828
0.99984
0.999687
0.999731
0.999544
0.99961
0.999435
0.999535
0.999363
0.999488
0.999218
0.999389
0.999069
0.99932
0.998905
0.999267
0.998716
0.999555
1.00008
1.00712
0.996443
0.955417
1.48979
2.12029
2.2068
2.2145
2.19672
2.21278
2.17764
2.19522
2.16261
2.19136
0.999262
1.0006
0.999043
1.00028
1.00161
0.998227
1.00203
0.997071
1.00395
0.996063
1.00433
0.996926
1.00075
0.99917
1.00031
0.999469
1.00132
0.996179
1.00265
0.996884
1.00039
0.997668
1.00157
0.996606
1.00159
0.996215
1.00037
0.996449
1.00176
0.99461
1.00061
0.995041
1.00165
0.992927
1.00146
0.991766
1.00189
0.987763
0.977676
1.75629
2.18824
2.20444
2.19262
2.20528
2.18477
2.19973
2.14899
2.18352
0.999322
1.0003
0.999347
0.999942
1.00029
0.998999
1.00071
0.999926
0.999967
0.999893
0.999984
0.999961
1.00003
0.99998
1.00008
1.00002
1.00012
1.00003
1.00012
1.00006
1.00014
1.00004
1.00019
0.999993
1.00015
0.999929
1.00013
0.999855
1.00007
0.999764
1.00007
0.999678
1.00009
0.999617
1.00047
1.00109
1.0075
0.995749
0.947009
1.31596
2.01914
2.18908
2.18263
2.18837
2.15761
2.17379
2.14424
2.16984
0.999345
1.00042
0.999799
0.99988
0.999827
0.999786
0.999529
1.00052
0.999867
0.999178
1.00084
0.99994
0.999936
1.00021
1.00081
0.999347
1.00101
1.00031
1.00053
1.00026
1.00034
1.00041
1.00088
0.999733
1.00153
0.999247
1.00146
0.99966
1.00107
0.999691
1.00105
1.00003
1.00059
1.00092
1.00039
1.00188
1.00109
0.996358
0.993633
1.00705
1.61259
2.12079
2.16702
2.17403
2.14911
2.16798
2.11863
2.16494
0.999112
1.00125
0.999199
1.00043
0.999438
0.999541
1.00076
0.998879
0.999436
1.00036
0.998223
1.00177
0.998609
1.00021
1.00027
0.999047
1.00117
0.998384
1.00037
0.999995
0.999993
0.998481
1.00241
0.997221
1.00283
0.996678
1.00273
0.998062
1.00243
0.997897
1.00087
0.99965
1.00123
1.00139
0.998068
1.00426
0.995912
1.00738
0.996206
0.968175
1.13507
1.85564
2.15237
2.16528
2.13295
2.15929
2.12728
2.15999
1.00044
0.99911
1.00065
1.00002
0.999965
0.999665
1.00043
0.998898
1.00065
1.00013
0.999517
0.999995
1.00039
0.999436
1.00013
1.00009
1.0005
0.999104
1.00089
1.00008
1.00024
1.00018
1.00018
1.00013
1.00021
1.00015
1.00019
1.00007
1.0001
0.999988
1.00005
0.999946
1.00004
0.999866
0.999971
0.999801
1.00026
1.00174
1.011
1.00003
0.956254
1.39212
2.00647
2.14254
2.13416
2.15114
2.10402
2.14358
1.00032
0.999666
0.999856
1.00003
1.00012
1.00017
1.00081
0.99946
1.00181
0.99815
1.00115
0.998646
1.00207
0.997717
1.00184
0.998943
1.00158
0.998906
0.999858
1.00144
0.996484
1.00396
0.995669
1.00303
0.997601
1.00171
0.996899
1.00441
0.99374
1.00532
0.994594
1.00363
0.993849
1.00613
0.991474
1.00604
0.991532
1.00751
0.989199
1.00916
0.987485
1.02716
1.63072
2.0804
2.12465
2.13563
2.10493
2.13091
1.00084
0.999026
1.00082
0.999089
1.00013
0.999825
1.00023
0.998948
1.00088
0.999665
1.00013
1.00007
0.999594
1.00037
0.999593
1.00053
0.999724
1.00013
0.999901
0.999987
0.99996
1.00008
1.0001
1.0002
1.0002
1.00029
1.00027
1.00039
1.00037
1.00053
1.0005
1.00065
1.00059
1.00077
1.00069
1.00091
1.00084
1.00124
1.00161
1.00306
0.995601
0.966672
1.16221
1.83239
2.10918
2.12997
2.07979
2.1266
0.997904
1.00237
0.998814
1.00153
0.999306
1.00013
1.00117
0.997627
1.00081
0.999826
1.00018
0.998665
1.00205
0.997454
1.00172
1.00005
1.00041
0.99984
0.999908
0.999854
0.999887
0.999891
0.999942
0.999944
1.00002
1.00001
1.00005
1.00002
1.00006
1.00001
1.00005
0.999977
1.00002
0.999941
1.00001
0.999917
1.00001
0.999912
1.00009
1.00047
1.0024
0.999599
0.971263
1.38183
1.96229
2.10391
2.08891
2.10869
1.00032
0.999926
1.0005
0.999196
0.99977
1.00001
1.00025
0.999944
1.00019
0.998487
1.00214
0.9983
1.00102
0.998859
1.00009
1.00099
0.999576
1.00072
0.99921
1.00046
0.99935
1.00232
0.998411
1.00184
0.997732
1.00215
0.996813
1.00285
0.997217
1.0026
0.996342
1.00389
0.996814
1.00426
0.995564
1.00409
0.994555
1.00541
0.994066
1.00593
0.992409
1.00792
0.991096
1.02585
1.58885
2.03408
2.082
2.09727
0.999486
1.00024
0.999448
1.00105
0.998615
1.00105
0.99866
1.00153
0.998509
1.00038
0.999717
1.002
0.997649
1.00084
0.999676
1.00065
0.998848
1.00093
1.00032
1.00015
0.999935
0.999882
0.999798
0.999785
0.99978
0.999851
0.999871
0.999948
0.999898
0.999943
0.999917
1.00007
1.00011
1.0003
1.00031
1.0005
1.00046
1.00069
1.00064
1.00101
1.0013
1.00243
0.996519
0.974709
1.12627
1.75797
2.05555
2.08387
0.997433
1.00095
1.00018
0.999067
1.00124
0.999054
1.00017
0.999807
0.999068
1.00065
1.00013
1.00129
0.9987
1.00187
0.999611
1.00084
0.999133
1.0022
0.998535
1.00109
1.00128
0.998482
1.00143
0.999416
1.00069
0.999605
1.00152
0.999986
1.0003
1.00002
1.00102
0.999991
0.999847
0.999947
1.00016
1.00008
1.00001
0.99986
0.999893
0.999759
0.99977
0.999662
0.998769
1.00072
0.974315
1.29706
1.87588
2.06398
0.99838
1.00128
0.998967
1.00097
0.999155
1.00145
0.998918
1.00161
0.998944
1.00122
0.997075
1.00195
0.998868
0.999573
1.00157
0.998315
1.00066
0.998972
1.00191
0.997426
1.00115
1.00001
1.00095
0.998724
1.00088
0.998815
1.00129
0.998735
1.00088
0.99925
1.00022
0.999372
1.00048
1.00043
0.998939
1.00179
0.998191
1.00158
0.998357
1.00313
0.997719
1.00461
0.996797
1.00572
0.996075
1.01245
1.48744
1.96204
0.999537
1.00004
1.00006
0.999972
1.00034
1.00022
0.99888
1.00107
0.99988
1.00039
0.999318
1.00127
0.998424
1.00211
0.999325
1.00101
0.999209
1.00095
0.999117
1.00123
0.999442
1.0006
0.999223
0.999853
1.00051
0.999443
0.999247
0.999933
0.999716
0.999431
0.999648
1.00055
0.999766
0.999697
0.999535
0.999884
1.00004
1.00031
1.00041
1.0004
1.00038
1.00029
1.00048
0.999989
0.998427
1.00158
1.03805
1.43171
0.999677
0.999818
0.999892
0.999887
0.999855
1.00006
1.0008
0.998588
1.00059
1.00004
1.00081
0.998932
1.00173
0.999204
0.999906
1.00086
0.998487
1.00244
0.997512
1.00174
0.998768
1.00113
0.997907
1.00277
0.997858
1.00177
0.998814
1.00154
0.998039
1.00238
0.997016
1.00157
0.998108
1.00259
0.996728
1.0034
0.996127
1.00423
0.996345
1.00218
0.997931
1.00097
0.99815
0.998587
0.99676
1.00229
0.972458
0.898761
0.997764
1.00807
0.99231
1.00939
0.994339
1.00157
1.00297
0.992624
1.00861
0.991188
1.00409
0.998879
0.998133
0.99977
1.00148
0.99649
1.00218
1.00103
0.99581
1.00406
0.997954
0.998261
1.00171
1.00105
0.998466
1.00149
1.00113
1.00044
0.998279
1.00157
0.99879
1.00075
0.99966
1.00176
1.00062
1.00038
1.00011
1.00022
1.0001
1.00025
0.999799
1
0.999266
1.00024
1.00073
1.00301
0.976933
0.355862
1.00026
1.00008
0.999894
0.99964
1.00041
0.999015
1.0009
0.999254
1.00077
0.99879
1.00115
0.99961
0.999058
1.00036
1.00014
0.998627
1.00154
0.998937
0.999823
1.00108
0.998626
1.00045
0.999738
1.0001
1.00009
1.0006
0.999711
1.00056
0.999686
0.999801
1.00012
0.999354
1.00034
0.997921
1.00147
0.99886
0.999681
1.00001
0.999576
1.00014
1.00094
0.999347
1.00165
0.999707
1.00367
1.01354
0.988119
1.12487
1.00052
1.00013
0.999102
1.00088
1.00043
0.99951
1.00182
0.999525
0.998831
0.999915
1.00011
1.00068
0.998482
1.00259
0.998055
1.00266
0.998219
1.00034
0.999985
0.999633
1.00081
0.998347
1
1.00117
0.998271
1.0027
0.997686
0.999743
0.997344
1.00174
0.997979
1.00221
0.999148
0.999983
1.00006
1.00042
0.999474
0.999361
1.00006
1.00091
1.00041
1.00036
0.999716
0.999611
0.999755
1.0058
1.02514
1.41636
1.0014
0.999288
0.999274
1.00097
1.00064
0.998123
1.00246
0.998119
1.00101
0.997868
1.00269
0.996438
1.00241
0.998748
1.001
0.999235
1.0011
0.998195
1.00106
0.999129
0.999417
1.00155
0.999002
0.999435
1.00013
1.00031
0.999345
0.999925
1.00072
0.999625
1.00022
0.999421
1.00098
0.999233
1.00048
0.998542
1.00137
0.999993
0.99979
0.999615
0.999878
0.999968
1.00006
1.00008
1.00027
1.00071
0.996048
1.27525
1.00066
0.999296
1.00109
0.998755
1.00121
0.999007
1.00085
0.999128
1.0009
0.999386
1.00012
1.001
1.00007
1.00001
0.999676
1.00082
0.999545
1.00017
0.999178
1.00083
0.999564
1.00039
0.998559
1.00227
0.999085
1.00072
0.999024
1.00038
1.00039
0.999657
0.999413
0.999987
1.00023
0.999713
0.999797
1.00101
0.997863
1.00276
0.995839
1.00539
0.992704
1.00769
0.989864
1.01255
0.985352
1.0168
0.977643
0.857412
1.0009
0.999022
1.00208
0.997489
1.00136
0.99941
1.00231
0.99798
1.00097
0.998753
1.0003
0.999408
1.00116
0.998188
1.00132
0.999046
1.00174
0.996894
1.00251
0.997209
1.00178
0.999807
0.999049
1.00006
1.00037
0.999319
1.00133
0.999095
1.00001
1.00066
1.00053
0.999725
0.999084
0.999886
0.999563
1.00106
0.999273
1.00083
0.998628
1.00069
0.999577
0.999621
0.999655
1.00003
1.00069
1.00175
0.997557
0.447668
1.00022
0.999428
1.00276
0.996588
1.0039
0.996593
1.00086
1.00054
0.999569
0.998635
1.00287
0.999139
0.999918
1.00255
0.998636
1.00164
1.00148
0.997601
1.00013
0.998748
0.999425
0.998861
1.00135
0.999624
1.00045
0.99861
0.999559
0.999778
1.00125
1.00063
1.00084
1.00023
0.999717
1.00004
0.998951
1.00091
1.00108
1.00047
0.998843
1.0008
0.999309
1.0015
0.998174
1.00433
0.997723
1.00639
0.995248
0.430507
1.00049
1.00144
0.999534
0.998776
1.00159
0.997617
1.00122
0.999622
1.00078
0.997996
1.00082
0.998369
1.00215
0.9987
1.0004
0.999352
1.00124
0.998566
1.00263
0.997939
1.00132
0.998524
1.00199
0.998815
0.999224
1.00023
0.999756
0.999644
1.00032
0.999809
1.0004
0.999367
1.00052
1.00054
0.998632
1.00014
1.00019
1.00063
0.998691
1.00019
1.00008
0.998888
0.999833
1.00006
1.00239
1.01115
0.991065
0.478536
1.00107
0.997703
1.00149
0.998448
1.00125
0.998746
1.00156
0.99849
1.00115
0.998866
1.00022
1.00051
1.00043
1.0005
1.00216
0.999092
1.0011
0.99885
0.999427
0.998718
1.00137
0.998076
1.00204
0.998868
0.999106
1.00022
1.00075
0.998773
1.00022
1.00108
0.999513
1.00019
1.00111
0.999289
1.00008
0.99997
1.00139
0.999266
0.999262
1.00092
1.00031
1.00056
0.999247
1.00114
1.00344
1.01407
0.987459
0.509722
0.999584
0.999587
1.00349
0.997573
0.999779
0.999471
1.0014
1.00051
1.00023
0.999142
1.00064
0.999005
1.00092
1.00043
1.0006
1.00016
1.0003
0.996805
1.00131
0.999326
1.00255
0.996314
1.00216
0.998433
0.99937
1.00135
0.998809
1.00012
1.00142
0.998608
0.998324
1.00306
0.997366
1.00162
0.996898
1.00256
0.998752
1.00176
0.998952
0.999952
1.00106
0.997523
1.00007
1.00116
1.00371
1.01696
0.982209
0.497642
1.00007
0.996772
1.00348
0.998562
1.00066
1.00105
1.00058
0.999979
1.00084
0.997825
1.00131
0.999942
0.99805
1.00096
1.00197
0.996663
1.00047
1.00159
0.999877
0.998518
1.00206
0.997878
1.00128
0.998837
1.00019
0.999574
1.001
1.00069
0.999197
0.999263
1.00193
0.999039
0.998808
0.999599
1.00099
0.999602
1.00008
0.99966
1.00168
1.00009
0.999019
0.999728
1.00331
1.01991
0.977874
1.01718
0.981372
0.563533
1.00403