/*--------------------------------*- C++ -*----------------------------------*\
  =========                 |
  \\      /  F ield         | OpenFOAM: The Open Source CFD Toolbox
   \\    /   O peration     | Website:  https://openfoam.org
    \\  /    A nd           | Version:  6
     \\/     M anipulation  |
\*---------------------------------------------------------------------------*/
FoamFile
{
    version     2.0;
    format      ascii;
    class       volVectorField;
    location    "4";
    object      U;
}
// * * * * * * * * * * * * * * * * * * * * * * * * * * * * * * * * * * * * * //

dimensions      [0 1 -1 0 0 0 0];

internalField   nonuniform List<vector> 
16128
(
(3.0007 7.21785e-05 0)
(3.00031 -0.000572431 0)
(3.0002 0.000154769 0)
(2.99941 3.06244e-05 0)
(3.00099 -0.00020461 0)
(2.99979 -0.000691702 0)
(2.99886 2.83997e-05 0)
(2.99991 0.000733458 0)
(3.00146 -0.00158788 0)
(2.9986 0.00146456 0)
(2.99921 0.000200607 0)
(2.99885 0.000823548 0)
(3.00216 0.00111951 0)
(2.99927 -0.00165132 0)
(2.99957 0.000661122 0)
(3.00015 -0.000530911 0)
(3.00033 0.000537325 0)
(3.00007 -0.000783397 0)
(2.99988 4.63198e-05 0)
(2.99904 -7.95561e-05 0)
(2.99595 0.00100085 0)
(2.98454 0.00491612 0)
(3.01578 0.00186674 0)
(3.13604 -0.0742765 0)
(1.52917 -0.0956294 0)
(0.835301 -0.0117041 0)
(0.851111 -0.00363597 0)
(0.807212 0.0143133 0)
(0.768237 0.0130185 0)
(0.738814 0.00381652 0)
(0.71282 0.00807992 0)
(0.676308 0.00276982 0)
(0.650982 0.00295695 0)
(0.630792 0.00360789 0)
(0.633025 -0.0191676 0)
(0.661236 -0.0525065 0)
(0.679445 -0.057203 0)
(0.702018 -0.0746902 0)
(0.724896 -0.0524606 0)
(0.743889 -0.00427007 0)
(0.748312 0.0226916 0)
(0.746534 0.0464291 0)
(0.719105 0.0394749 0)
(0.703047 0.0700966 0)
(0.64046 0.0902632 0)
(0.590894 0.0735999 0)
(0.497864 0.0360142 0)
(0.307267 0.217827 0)
(2.99967 0.00250032 0)
(3.00074 -0.00214872 0)
(3.0002 0.000960427 0)
(2.99969 -0.00053021 0)
(3.0005 0.000264899 0)
(2.99957 -0.00193745 0)
(3.00068 0.00095413 0)
(2.99927 0.000873368 0)
(3.00101 -0.00189195 0)
(2.99957 0.000709585 0)
(2.99985 -0.000806695 0)
(3.00009 0.00123728 0)
(2.99905 -0.000662783 0)
(2.99875 0.000953001 0)
(3.0002 -0.00058448 0)
(2.99969 0.00076077 0)
(3.001 -0.00138347 0)
(3.00021 0.000903606 0)
(3.00052 -0.000181637 0)
(2.99922 0.00092165 0)
(3.00006 -0.000761764 0)
(2.9978 0.00433389 0)
(2.99901 0.00138728 0)
(2.8017 -0.0236825 0)
(1.09698 -0.0285294 0)
(0.589762 0.0241839 0)
(0.557095 0.0400698 0)
(0.496562 0.0464876 0)
(0.456438 0.0386338 0)
(0.416063 0.0268447 0)
(0.375576 0.0295396 0)
(0.330185 0.0391553 0)
(0.275091 0.0228455 0)
(0.259468 -0.00062088 0)
(0.2036 -0.0115879 0)
(0.183289 0.00779555 0)
(0.103805 0.00671376 0)
(0.0783641 0.0186848 0)
(-0.0242256 0.00591079 0)
(0.0122719 -0.0349573 0)
(0.00345086 -0.0419991 0)
(0.116253 -0.0246859 0)
(0.10033 -0.00815832 0)
(0.201008 -0.015494 0)
(0.190217 -0.00090521 0)
(0.30595 0.0399109 0)
(0.211833 0.284012 0)
(0.0764453 0.492341 0)
(3.0007 0.000903254 0)
(2.99904 -0.000755591 0)
(3.00102 0.000665106 0)
(2.99914 0.00145621 0)
(3.00097 -0.000813967 0)
(2.99923 -0.000342366 0)
(3.00152 -0.000258677 0)
(2.99776 0.000660559 0)
(3.00133 -0.00180829 0)
(2.9985 0.000433962 0)
(3.00045 -0.00126227 0)
(2.99977 0.00075736 0)
(3.00189 -0.000393576 0)
(2.99848 -0.000130135 0)
(2.99946 -0.000512165 0)
(2.99955 0.0012033 0)
(3.00055 -1.74746e-05 0)
(3.00112 -0.00157105 0)
(2.99999 -0.000285197 0)
(2.99979 -0.000824762 0)
(2.99862 0.00107162 0)
(3.00115 -0.000657853 0)
(3.00921 -0.0021507 0)
(2.93023 0.102769 0)
(1.24793 0.162054 0)
(0.643441 0.106346 0)
(0.604192 0.0877333 0)
(0.552527 0.0900148 0)
(0.508662 0.0758447 0)
(0.47493 0.0652491 0)
(0.435041 0.0797417 0)
(0.389736 0.0813328 0)
(0.350034 0.0689003 0)
(0.27911 0.0792912 0)
(0.2009 0.0529797 0)
(0.148076 0.0484555 0)
(0.0887851 0.0389659 0)
(0.0160826 0.0478325 0)
(-0.0348777 0.00743506 0)
(-0.0645589 -0.0341765 0)
(-0.0715691 -0.0681273 0)
(-0.0587487 -0.0454237 0)
(-0.0449704 -0.0340914 0)
(0.00239631 -0.00574005 0)
(0.00443424 -0.00318629 0)
(0.00426792 0.0673198 0)
(-0.00278029 0.26489 0)
(0.0394174 0.584762 0)
(3.00086 0.00302851 0)
(2.9994 -0.00387053 0)
(3.00045 0.00198335 0)
(3.00102 -0.00170193 0)
(3.0009 0.00134263 0)
(2.99672 -0.00223457 0)
(3 0.000326549 0)
(3.00113 -0.000907608 0)
(3.00001 0.000761701 0)
(2.99897 6.47756e-05 0)
(2.99986 0.000467104 0)
(3.00246 0.000698921 0)
(2.99888 0.00167875 0)
(2.99977 -0.000513827 0)
(2.99941 -0.00123877 0)
(2.99881 8.81722e-05 0)
(2.99953 0.00069225 0)
(3.00172 -0.000179989 0)
(2.99939 -0.000499359 0)
(2.99988 -0.000134245 0)
(2.99964 -0.00152676 0)
(2.99138 0.0135885 0)
(3.00928 -0.0152528 0)
(3.3156 0.149348 0)
(1.55149 0.243454 0)
(0.743784 0.154903 0)
(0.746653 0.118422 0)
(0.696925 0.117933 0)
(0.649577 0.103791 0)
(0.612027 0.0936491 0)
(0.558692 0.110245 0)
(0.511235 0.118785 0)
(0.45484 0.133481 0)
(0.374936 0.151397 0)
(0.272114 0.126055 0)
(0.157206 0.12344 0)
(0.0528715 0.138098 0)
(-0.0600409 0.127199 0)
(-0.128902 0.0715974 0)
(-0.149954 -0.00198093 0)
(-0.150972 -0.04424 0)
(-0.10944 -0.0573204 0)
(-0.0909463 -0.0489295 0)
(-0.0466698 -0.0351525 0)
(-0.0376778 0.00540393 0)
(-0.0476914 0.0510927 0)
(-0.0665055 0.258739 0)
(-0.00767975 0.548471 0)
(3.00027 0.000795539 0)
(2.99966 -0.00115992 0)
(3.00038 0.000335049 0)
(2.99931 -1.85026e-05 0)
(3.0011 0.00187952 0)
(2.9979 -0.00156293 0)
(3.00185 -0.00021521 0)
(2.99926 -0.000737424 0)
(3.00245 0.0010617 0)
(2.99816 -0.0003382 0)
(2.99868 0.000999906 0)
(3.00055 -0.00141702 0)
(3.0014 0.00130045 0)
(2.99983 -0.00131172 0)
(2.99933 0.0006139 0)
(2.99954 0.000512122 0)
(2.99837 0.00104909 0)
(3.00163 -0.00173572 0)
(2.99979 0.00183008 0)
(3.00035 -0.00269855 0)
(2.99926 0.000480606 0)
(2.99873 0.00281195 0)
(3.00213 -0.00650758 0)
(3.46602 0.0662943 0)
(1.8407 0.170778 0)
(0.783972 0.169632 0)
(0.797608 0.163427 0)
(0.756619 0.160648 0)
(0.711814 0.155418 0)
(0.673853 0.158223 0)
(0.628208 0.17472 0)
(0.578653 0.188499 0)
(0.526028 0.20179 0)
(0.462564 0.241454 0)
(0.379092 0.2568 0)
(0.238784 0.252423 0)
(0.1164 0.241305 0)
(0.0153354 0.216365 0)
(-0.0417204 0.100846 0)
(-0.0716622 -0.0137078 0)
(-0.0994138 -0.0916777 0)
(-0.102696 -0.0961774 0)
(-0.0794598 -0.0890631 0)
(-0.0486286 -0.0451271 0)
(-0.0506564 0.0054591 0)
(-0.040535 0.0781011 0)
(-0.0723198 0.219569 0)
(-0.0157349 0.491069 0)
(3.00025 -0.00251791 0)
(2.99983 0.00252489 0)
(3.00054 -0.000570685 0)
(3.00024 0.00115238 0)
(2.99932 -0.000955138 0)
(3.00053 0.00028315 0)
(2.9996 0.00162161 0)
(2.99937 -0.00122401 0)
(2.99956 0.00172996 0)
(2.99972 -0.003208 0)
(3.00109 0.00167035 0)
(2.9994 -0.00383503 0)
(3.00015 0.00365282 0)
(2.99995 -0.00319722 0)
(3.00134 0.00395752 0)
(3.0011 -0.00148761 0)
(3.00026 0.00125838 0)
(3.00049 -0.00184185 0)
(3.00402 0.000110532 0)
(2.99443 -0.00206765 0)
(3.00537 0.00151424 0)
(2.99016 -0.0013531 0)
(3.0065 -0.00240825 0)
(3.3451 0.039915 0)
(1.68845 0.16657 0)
(0.695783 0.190854 0)
(0.703008 0.174596 0)
(0.669636 0.180799 0)
(0.638031 0.18555 0)
(0.600782 0.187507 0)
(0.557058 0.197425 0)
(0.525516 0.211462 0)
(0.493216 0.227112 0)
(0.466589 0.27994 0)
(0.445412 0.335175 0)
(0.376074 0.391925 0)
(0.279296 0.355066 0)
(0.189385 0.280367 0)
(0.137227 0.156946 0)
(0.100512 0.0651091 0)
(0.0567984 -0.00667552 0)
(0.0129437 -0.0603264 0)
(-0.0359367 -0.076726 0)
(-0.0366966 -0.0439318 0)
(-0.0441431 0.0045072 0)
(-0.0231933 0.0782178 0)
(-0.032611 0.220258 0)
(-0.0162052 0.440286 0)
(3.00044 -0.000562399 0)
(2.99915 0.000839857 0)
(3.00036 -0.000456646 0)
(3.00116 0.000219338 0)
(2.99919 -0.000165554 0)
(2.99992 -0.000135706 0)
(3.00075 0.000325108 0)
(2.99807 -7.27377e-05 0)
(3.00101 1.94e-05 0)
(3.00022 0.00012787 0)
(2.99997 0.000422769 0)
(2.9993 -0.0013472 0)
(3.00118 0.00158267 0)
(2.99771 -0.000691945 0)
(3.00294 0.00147273 0)
(2.99884 -0.00115882 0)
(3.0011 0.00166581 0)
(2.99903 -0.00179423 0)
(2.99994 0.00163935 0)
(2.99954 -0.00156494 0)
(2.99722 7.6383e-05 0)
(2.98363 -0.0018506 0)
(3.01805 -5.05658e-05 0)
(3.43777 0.00591804 0)
(2.29958 0.196405 0)
(0.860678 0.219357 0)
(0.841425 0.215711 0)
(0.78358 0.21791 0)
(0.721138 0.223502 0)
(0.656275 0.231801 0)
(0.590574 0.247549 0)
(0.53095 0.255558 0)
(0.482543 0.25504 0)
(0.446725 0.294841 0)
(0.43093 0.355446 0)
(0.418231 0.41978 0)
(0.393012 0.420283 0)
(0.338028 0.347066 0)
(0.293881 0.177547 0)
(0.260405 0.0642641 0)
(0.248886 -0.00755163 0)
(0.215964 -0.00777821 0)
(0.145468 -0.0349253 0)
(0.0697667 -0.0265212 0)
(0.0241905 -0.00868726 0)
(0.0136979 0.0802308 0)
(0.00698888 0.22026 0)
(-0.0137719 0.432712 0)
(3.00011 0.00106818 0)
(3.00048 4.81238e-05 0)
(3.00119 -0.000910406 0)
(2.99978 0.0025635 0)
(2.99926 -0.00222925 0)
(2.99994 0.00171694 0)
(2.99887 -0.00431122 0)
(3.0005 0.00300173 0)
(3.00054 -0.0030609 0)
(2.99999 0.00293228 0)
(2.99937 -0.000854787 0)
(3.00089 0.000767328 0)
(2.9994 0.000457946 0)
(2.99836 -0.00383077 0)
(3.00124 0.00351829 0)
(3.00094 -0.00435839 0)
(2.99998 0.00505384 0)
(2.99807 -0.00470344 0)
(3.00578 0.00187072 0)
(2.98813 -0.000623833 0)
(3.01302 -0.00154607 0)
(2.98549 0.000836232 0)
(3.01254 0.00286212 0)
(3.16687 -0.0554134 0)
(2.39358 -0.0148924 0)
(0.849509 0.224681 0)
(0.809904 0.246734 0)
(0.787823 0.267255 0)
(0.7586 0.279895 0)
(0.718063 0.29361 0)
(0.674861 0.309484 0)
(0.636155 0.319755 0)
(0.58408 0.315767 0)
(0.532871 0.324624 0)
(0.505405 0.349961 0)
(0.507926 0.416621 0)
(0.525191 0.434735 0)
(0.50842 0.37132 0)
(0.488762 0.222124 0)
(0.443914 0.115387 0)
(0.390632 0.0441043 0)
(0.331393 0.0500321 0)
(0.26061 0.0738283 0)
(0.149042 0.0777524 0)
(0.0752899 0.0561534 0)
(0.00818298 0.0924945 0)
(0.0131479 0.250182 0)
(-0.00442475 0.443649 0)
(3.00114 -0.00108739 0)
(2.99863 0.00129769 0)
(3.00183 -0.001144 0)
(2.99878 0.00194268 0)
(2.99873 -0.00239293 0)
(2.99976 0.00226823 0)
(3.00057 -0.00141193 0)
(3.00041 0.00264387 0)
(2.99907 -0.00256212 0)
(3.00156 0.0013763 0)
(2.99798 -0.000139479 0)
(3.00364 -0.000843144 0)
(2.99777 0.00014737 0)
(2.99996 -0.000124132 0)
(2.99959 -0.00155361 0)
(3.00023 0.000835277 0)
(2.99891 -8.21139e-05 0)
(2.99032 -0.000722824 0)
(3.00956 0.00252591 0)
(2.99288 -0.00246073 0)
(3.0104 0.00455499 0)
(2.9907 -0.0104766 0)
(3.00859 0.0111257 0)
(3.07852 -0.0241159 0)
(2.44239 0.0670832 0)
(0.884732 0.228276 0)
(0.778149 0.242535 0)
(0.77394 0.257303 0)
(0.760203 0.283052 0)
(0.743278 0.307988 0)
(0.726928 0.32761 0)
(0.710313 0.337555 0)
(0.686014 0.343441 0)
(0.657496 0.361195 0)
(0.637284 0.375105 0)
(0.623132 0.426263 0)
(0.645492 0.428443 0)
(0.660013 0.369832 0)
(0.654647 0.2421 0)
(0.599721 0.172709 0)
(0.52 0.108949 0)
(0.440602 0.12952 0)
(0.357993 0.14556 0)
(0.264669 0.160954 0)
(0.149825 0.131324 0)
(0.0625545 0.149034 0)
(0.0322095 0.243797 0)
(0.0238003 0.460598 0)
(3.00152 -0.000974491 0)
(2.99774 0.000746505 0)
(3.00269 -0.000434657 0)
(2.99752 -0.00135362 0)
(3.00377 0.00137263 0)
(2.99749 0.000122337 0)
(3.00339 0.00177974 0)
(2.99465 -0.00133567 0)
(3.00442 0.00053645 0)
(2.996 -0.00128115 0)
(3.00291 0.000440937 0)
(2.99976 0.00086153 0)
(3.00022 -0.000607117 0)
(2.99941 0.00263323 0)
(2.99837 -0.00461868 0)
(3.00411 0.0050692 0)
(2.99682 -0.00517551 0)
(3.00017 0.00408212 0)
(2.99923 -0.00189004 0)
(3.00046 0.002254 0)
(2.9952 -0.000607982 0)
(2.98867 0.00472329 0)
(3.02101 -0.00186867 0)
(3.03988 -0.0229268 0)
(2.54083 0.0697684 0)
(0.996118 0.241708 0)
(0.770144 0.262269 0)
(0.753853 0.277802 0)
(0.739747 0.293182 0)
(0.728932 0.316045 0)
(0.728212 0.332242 0)
(0.726874 0.354144 0)
(0.722515 0.365517 0)
(0.720347 0.382178 0)
(0.704654 0.396637 0)
(0.704034 0.421801 0)
(0.729994 0.408352 0)
(0.748885 0.372363 0)
(0.733136 0.284445 0)
(0.671627 0.232203 0)
(0.593084 0.188544 0)
(0.502369 0.205487 0)
(0.417261 0.243467 0)
(0.321452 0.274496 0)
(0.227421 0.25725 0)
(0.143337 0.220617 0)
(0.0749275 0.306618 0)
(0.0177182 0.501492 0)
(2.99976 0.00156621 0)
(3 -0.00145604 0)
(2.99933 0.00149364 0)
(3.00034 -0.00334159 0)
(2.99995 0.00140449 0)
(3.00157 -0.000831114 0)
(2.9994 -0.000337075 0)
(2.99986 0.000645014 0)
(2.99943 -0.000871957 0)
(2.99978 0.00095195 0)
(2.99979 -0.000530132 0)
(3.00185 0.00121743 0)
(2.9977 0.000188027 0)
(3.00264 -0.00123768 0)
(2.99718 0.00283752 0)
(3.00184 -0.00298488 0)
(3.00005 0.00185476 0)
(2.9981 1.87633e-05 0)
(3.00125 -0.000821473 0)
(2.99865 -0.000310944 0)
(3.00044 0.000577261 0)
(3.00208 0.00708489 0)
(2.99187 -0.00323932 0)
(2.94486 -0.00998447 0)
(2.61355 0.127919 0)
(1.09412 0.305363 0)
(0.748472 0.281671 0)
(0.740408 0.27808 0)
(0.721608 0.288947 0)
(0.71289 0.309282 0)
(0.719781 0.317666 0)
(0.711347 0.346414 0)
(0.71023 0.360214 0)
(0.716344 0.379733 0)
(0.719362 0.388969 0)
(0.726024 0.408314 0)
(0.735906 0.39287 0)
(0.741465 0.365871 0)
(0.722052 0.318454 0)
(0.675968 0.282142 0)
(0.615138 0.255457 0)
(0.527004 0.286545 0)
(0.460001 0.309072 0)
(0.390793 0.35985 0)
(0.294067 0.336799 0)
(0.22532 0.302305 0)
(0.102245 0.362226 0)
(0.0558189 0.539698 0)
(3.00179 0.000288885 0)
(2.999 0.000331647 0)
(2.99999 0.000502172 0)
(2.99959 8.38738e-05 0)
(3.00215 -0.000878609 0)
(2.99835 -0.000465414 0)
(3.00162 0.000482209 0)
(2.9973 -0.000694062 0)
(3.00259 -0.00100873 0)
(2.99842 0.00125917 0)
(3.00047 -7.59516e-05 0)
(2.99939 -0.000537254 0)
(2.99959 -0.000522885 0)
(3.00091 0.000532325 0)
(2.99866 -0.000167454 0)
(3.00167 -0.00057996 0)
(3.00002 -0.00129836 0)
(3.00005 0.00141422 0)
(2.99955 0.000501861 0)
(2.99978 -2.62482e-05 0)
(3.00069 -5.29297e-05 0)
(3.00044 -0.000957772 0)
(2.99657 -0.00165399 0)
(2.99266 0.00731296 0)
(2.82733 0.182813 0)
(1.28269 0.335812 0)
(0.763736 0.291216 0)
(0.749804 0.299017 0)
(0.728963 0.299016 0)
(0.719578 0.311397 0)
(0.714401 0.328838 0)
(0.710141 0.347885 0)
(0.705044 0.352647 0)
(0.698298 0.374343 0)
(0.699294 0.384521 0)
(0.704767 0.401554 0)
(0.707372 0.391497 0)
(0.699777 0.386343 0)
(0.675914 0.341861 0)
(0.63616 0.312378 0)
(0.577711 0.313229 0)
(0.510409 0.331987 0)
(0.448878 0.396682 0)
(0.355177 0.456175 0)
(0.272993 0.433506 0)
(0.161382 0.403539 0)
(0.0947503 0.47242 0)
(0.0214152 0.628966 0)
(2.99948 0.00150463 0)
(3.00076 -0.00184347 0)
(2.99891 0.000138208 0)
(3.00015 -0.000469952 0)
(2.99931 -0.000183847 0)
(3.00216 0.000514997 0)
(2.99904 -0.000793455 0)
(2.9996 0.000597589 0)
(2.99981 -0.000513377 0)
(3.0015 -0.000772727 0)
(2.99895 0.00145818 0)
(3.00063 -0.000779021 0)
(2.99985 0.000226723 0)
(2.99997 0.000652722 0)
(2.99988 0.00082645 0)
(2.99841 0.0016119 0)
(3.00164 -0.00168293 0)
(3.00006 0.000670681 0)
(2.99956 0.000969507 0)
(2.99969 -0.000192669 0)
(2.99928 -0.000607824 0)
(2.99494 -0.00119509 0)
(2.98318 0.000823294 0)
(3.0198 -0.00832371 0)
(3.10488 0.202141 0)
(1.45636 0.392106 0)
(0.748857 0.360041 0)
(0.718165 0.317825 0)
(0.677676 0.283953 0)
(0.666885 0.311632 0)
(0.679705 0.320345 0)
(0.681994 0.342883 0)
(0.708426 0.356865 0)
(0.698786 0.384791 0)
(0.703549 0.379931 0)
(0.705315 0.395789 0)
(0.696536 0.38329 0)
(0.675672 0.399838 0)
(0.645455 0.381467 0)
(0.60353 0.374208 0)
(0.551336 0.36414 0)
(0.508806 0.415402 0)
(0.428268 0.47777 0)
(0.388198 0.541658 0)
(0.282294 0.511868 0)
(0.219435 0.483575 0)
(0.0762712 0.50802 0)
(0.0923424 0.685229 0)
(3.00091 0.00214519 0)
(2.99762 -0.00295096 0)
(3.00166 0.00259508 0)
(2.9993 -0.00285333 0)
(3.00299 0.00236665 0)
(2.99752 -0.00245466 0)
(3.00163 0.000828637 0)
(2.99807 -0.00166264 0)
(3.00057 0.00157198 0)
(3.00077 -0.00168931 0)
(2.99994 0.000123078 0)
(2.99895 0.000916238 0)
(3.00025 -0.00113977 0)
(3.00122 0.00285295 0)
(3 -0.00338105 0)
(2.99982 0.00458587 0)
(2.99976 -0.00358528 0)
(3.00106 0.00221668 0)
(2.99844 -0.00234322 0)
(2.99937 -0.00182934 0)
(2.99964 0.000473272 0)
(2.9965 0.00137798 0)
(2.98405 0.00977575 0)
(3.01742 -0.00570077 0)
(3.46495 0.0734377 0)
(2.19096 0.370984 0)
(0.894331 0.407058 0)
(0.865253 0.384631 0)
(0.803847 0.349765 0)
(0.73715 0.310835 0)
(0.669781 0.304224 0)
(0.665473 0.31979 0)
(0.661873 0.331403 0)
(0.672324 0.373979 0)
(0.666287 0.369134 0)
(0.687152 0.415027 0)
(0.677391 0.406731 0)
(0.648885 0.426288 0)
(0.614771 0.408213 0)
(0.577418 0.409506 0)
(0.513865 0.433566 0)
(0.445739 0.465132 0)
(0.418486 0.51125 0)
(0.35167 0.602031 0)
(0.312277 0.594681 0)
(0.175053 0.611041 0)
(0.120715 0.634637 0)
(-0.00963541 0.857234 0)
(3.00068 -0.00337489 0)
(2.99935 0.00352193 0)
(2.99985 -0.0026662 0)
(2.99967 0.00395837 0)
(3.00044 -0.00168882 0)
(2.99855 0.000988503 0)
(3.00134 -0.000154195 0)
(2.99985 -4.10214e-05 0)
(2.99977 -7.86963e-05 0)
(3.00043 -0.0016505 0)
(3.00062 0.00185346 0)
(2.99922 -0.00193955 0)
(3.00145 0.00196946 0)
(2.99856 -0.000681991 0)
(3.00075 0.000121904 0)
(3 -2.24233e-05 0)
(3.00017 0.000445849 0)
(2.99894 -0.000276232 0)
(2.9941 -0.00116944 0)
(3.00027 0.00124229 0)
(3.00268 -0.00166358 0)
(2.99956 0.00102999 0)
(2.99044 0.00259194 0)
(3.01084 0.00343596 0)
(3.07989 -0.114098 0)
(2.46038 0.210541 0)
(0.982897 0.437121 0)
(0.889686 0.419071 0)
(0.879923 0.424487 0)
(0.831908 0.446372 0)
(0.751214 0.390205 0)
(0.668405 0.373629 0)
(0.626549 0.33798 0)
(0.573066 0.362276 0)
(0.612236 0.357485 0)
(0.574759 0.408118 0)
(0.63523 0.392188 0)
(0.644089 0.493027 0)
(0.610969 0.419583 0)
(0.577217 0.491014 0)
(0.546142 0.480806 0)
(0.456411 0.543703 0)
(0.417134 0.516428 0)
(0.446625 0.682904 0)
(0.344921 0.718462 0)
(0.318907 0.717856 0)
(0.125061 0.719114 0)
(0.141125 0.807819 0)
(3.00028 0.000786617 0)
(2.99958 -0.00262608 0)
(3.00043 0.00228062 0)
(3.0005 -0.00223794 0)
(2.99987 0.000811572 0)
(3.00082 -0.000475432 0)
(2.99916 0.000261089 0)
(2.99833 0.00135749 0)
(3.00007 -0.00213153 0)
(3.00051 0.00326967 0)
(3.00141 -0.00186277 0)
(2.9989 0.000334911 0)
(3.00016 0.000176083 0)
(3.00028 -0.00153021 0)
(3.00053 0.000884443 0)
(2.99984 -0.00138402 0)
(3.00055 0.000918833 0)
(2.99982 -0.0025596 0)
(2.99762 0.0043286 0)
(3.00442 -0.000387607 0)
(2.99326 -0.00101706 0)
(3.00281 0.00137601 0)
(2.99534 -0.000114078 0)
(3.00368 0.00501378 0)
(3.02397 -0.0204855 0)
(2.56653 0.14489 0)
(1.06611 0.395133 0)
(0.857495 0.409781 0)
(0.87025 0.434501 0)
(0.861654 0.452769 0)
(0.843758 0.467252 0)
(0.758136 0.436493 0)
(0.714812 0.419306 0)
(0.611883 0.388584 0)
(0.558629 0.373334 0)
(0.563923 0.387371 0)
(0.497902 0.338061 0)
(0.569149 0.446966 0)
(0.586036 0.474894 0)
(0.566602 0.51944 0)
(0.536483 0.527211 0)
(0.506753 0.628675 0)
(0.444212 0.566542 0)
(0.436652 0.714814 0)
(0.34218 0.75812 0)
(0.272947 0.877036 0)
(0.153069 0.846453 0)
(-0.00752663 1.24113 0)
(2.99819 -0.00251484 0)
(3.00215 0.00216639 0)
(2.99962 -0.00105379 0)
(2.99935 0.000953031 0)
(2.99971 -0.00133034 0)
(3.00012 0.0021686 0)
(3.0005 -0.00260804 0)
(3.00034 0.00127789 0)
(3.00061 -0.000764119 0)
(2.99917 0.00268986 0)
(2.99996 -0.000774291 0)
(2.99885 0.0013744 0)
(3.00164 0.000595172 0)
(2.99887 -0.00244464 0)
(3.0004 0.000653866 0)
(2.99914 -0.00206001 0)
(3.00027 0.00235308 0)
(3.0009 -0.0016682 0)
(2.99979 0.00262413 0)
(2.9976 -0.00308065 0)
(3.00201 0.00314161 0)
(2.99937 0.000379661 0)
(3.00103 0.00107967 0)
(2.99425 9.1722e-06 0)
(2.96853 -0.00645824 0)
(2.71556 0.168601 0)
(1.23445 0.393922 0)
(0.824442 0.405708 0)
(0.834416 0.424015 0)
(0.858619 0.46713 0)
(0.85734 0.479502 0)
(0.842605 0.500189 0)
(0.814318 0.480831 0)
(0.751377 0.510094 0)
(0.68035 0.413621 0)
(0.605385 0.465667 0)
(0.556599 0.379885 0)
(0.470705 0.400201 0)
(0.56362 0.426638 0)
(0.567703 0.586187 0)
(0.562026 0.50205 0)
(0.49729 0.68496 0)
(0.528606 0.614387 0)
(0.442173 0.88932 0)
(0.498499 0.791463 0)
(0.427387 1.18143 0)
(0.4393 0.9255 0)
(0.536344 1.82692 0)
(3.00062 -0.000649932 0)
(2.99973 0.00163104 0)
(2.99965 -0.00060104 0)
(3.00006 0.00145899 0)
(3.00088 -0.00170553 0)
(2.99934 0.000304984 0)
(3.00041 -0.00043693 0)
(3.00075 0.000980472 0)
(3.00024 -0.00100738 0)
(2.99767 -0.00153071 0)
(3.00105 0.00113546 0)
(2.99954 -0.000660205 0)
(3.00015 -0.00036912 0)
(2.99988 -0.000584974 0)
(3.00179 0.000162739 0)
(2.99954 2.70722e-05 0)
(2.99899 1.85859e-05 0)
(2.99811 -0.000225659 0)
(3.00016 -0.00121592 0)
(2.99972 0.00101068 0)
(3.00074 0.0013234 0)
(2.99932 9.91864e-05 0)
(2.99998 0.000395712 0)
(2.99995 -0.0015308 0)
(3.00636 0.000243545 0)
(2.92292 0.209485 0)
(1.37161 0.435413 0)
(0.774963 0.428238 0)
(0.75988 0.405928 0)
(0.725944 0.42996 0)
(0.782256 0.466293 0)
(0.782279 0.498492 0)
(0.809079 0.480971 0)
(0.782081 0.534755 0)
(0.780506 0.512919 0)
(0.677468 0.510343 0)
(0.642655 0.479577 0)
(0.524612 0.446138 0)
(0.480027 0.375697 0)
(0.499163 0.517268 0)
(0.614548 0.617213 0)
(0.543265 0.700654 0)
(0.552959 0.657533 0)
(0.443813 0.79203 0)
(0.644303 0.909184 0)
(0.48546 1.10584 0)
(0.817808 1.08067 0)
(0.828145 1.62395 0)
(2.99932 -0.00127402 0)
(3.00123 0.0031437 0)
(2.99791 -0.00272717 0)
(3.00163 0.00217129 0)
(2.99877 -0.00434568 0)
(3.00061 0.00415211 0)
(2.99953 -0.00312531 0)
(3.00066 0.00323635 0)
(2.9987 0.000563178 0)
(3.00093 -0.000741787 0)
(3.00012 -0.000138556 0)
(2.99882 -0.00213446 0)
(3.00099 -5.45206e-05 0)
(2.99963 -0.000462924 0)
(2.99961 0.000751998 0)
(2.99987 0.000417733 0)
(2.99944 0.00175858 0)
(3.00167 -0.00018394 0)
(3.00129 0.00188385 0)
(2.9999 -7.52482e-05 0)
(2.99969 0.00186535 0)
(3.00051 -0.00189278 0)
(2.99799 -0.000934341 0)
(2.98505 0.0037281 0)
(3.01715 -0.0069755 0)
(3.44957 0.125847 0)
(2.13373 0.433066 0)
(0.916584 0.490686 0)
(0.894087 0.472283 0)
(0.807419 0.433572 0)
(0.796562 0.437341 0)
(0.782658 0.471249 0)
(0.791048 0.486669 0)
(0.747056 0.535665 0)
(0.82489 0.509599 0)
(0.776486 0.606117 0)
(0.767825 0.536531 0)
(0.678779 0.588914 0)
(0.614616 0.460467 0)
(0.419323 0.460806 0)
(0.552301 0.489316 0)
(0.588364 0.766116 0)
(0.69176 0.762802 0)
(0.535073 0.858244 0)
(0.707819 0.86905 0)
(0.626686 1.08424 0)
(0.893076 1.02096 0)
(0.954311 1.38819 0)
(3.00214 0.00125664 0)
(2.99904 -0.000240908 0)
(2.99978 -1.35684e-05 0)
(2.99902 -0.00068776 0)
(3.00096 -0.000845205 0)
(3.00069 0.00162171 0)
(2.9975 -0.00220263 0)
(3.0024 0.00269425 0)
(2.99765 -0.00104938 0)
(3.00162 0.00239719 0)
(2.99789 -0.00225189 0)
(3.00046 0.00264064 0)
(3.00031 -0.00131309 0)
(3.00054 0.000675176 0)
(3.001 0.000205883 0)
(3.00127 -0.000624068 0)
(3.00001 0.00172805 0)
(3.00053 0.000467373 0)
(2.9985 0.000373629 0)
(2.99942 -0.000616001 0)
(2.99804 0.000362977 0)
(2.99122 -0.00152523 0)
(3.0096 0.0002346 0)
(2.99008 2.4955e-05 0)
(3.00882 0.00343041 0)
(3.07031 -0.122424 0)
(2.50824 0.301817 0)
(1.08758 0.540127 0)
(0.951105 0.515572 0)
(0.916491 0.520149 0)
(0.865365 0.492375 0)
(0.80598 0.490201 0)
(0.810524 0.498714 0)
(0.766322 0.516213 0)
(0.771793 0.49925 0)
(0.778581 0.579314 0)
(0.829661 0.5915 0)
(0.770374 0.628829 0)
(0.824252 0.65482 0)
(0.635003 0.610595 0)
(0.564896 0.472886 0)
(0.47505 0.596283 0)
(0.731336 0.775151 0)
(0.592535 0.848396 0)
(0.842535 0.929724 0)
(0.741508 1.08394 0)
(0.990474 0.979433 0)
(0.972722 1.21584 0)
(2.99981 0.000452041 0)
(3.00067 0.000429231 0)
(2.99944 0.00209982 0)
(3 -0.00681005 0)
(2.99912 0.00120298 0)
(3.00106 -0.00127759 0)
(2.99902 0.00133965 0)
(3.00127 0.0010009 0)
(2.99901 0.00179578 0)
(3.00177 0.000818026 0)
(2.99814 -0.00346967 0)
(3.00051 0.000836196 0)
(3.00152 -0.00315182 0)
(3.00073 -0.000720359 0)
(2.99959 0.000178118 0)
(3.0005 0.00134466 0)
(3.00066 0.00111354 0)
(2.99984 0.000893969 0)
(2.99931 0.000673226 0)
(2.99459 0.00299528 0)
(3.00429 -0.00257933 0)
(2.99434 0.00159599 0)
(3.00493 0.00037615 0)
(2.99598 -0.00397408 0)
(3.00439 0.00655241 0)
(3.00246 -0.021269 0)
(2.64101 0.206994 0)
(1.20973 0.494661 0)
(0.917768 0.504668 0)
(0.931178 0.538315 0)
(0.919269 0.53 0)
(0.902696 0.547038 0)
(0.871664 0.520037 0)
(0.815185 0.572411 0)
(0.83345 0.519429 0)
(0.725166 0.562339 0)
(0.810586 0.549566 0)
(0.734947 0.598173 0)
(0.849653 0.628438 0)
(0.807738 0.75542 0)
(0.801436 0.665416 0)
(0.538325 0.639786 0)
(0.71946 0.706215 0)
(0.620512 0.820397 0)
(0.818442 0.837871 0)
(0.862717 1.09147 0)
(1.04023 0.971372 0)
(0.974662 1.10424 0)
(2.99955 -0.000393378 0)
(3.00217 -0.000455553 0)
(2.99807 0.00202431 0)
(3.00204 -0.00355828 0)
(2.99718 0.0028761 0)
(3.00265 -0.00226387 0)
(2.99825 0.00239951 0)
(2.99923 -0.000399376 0)
(3.00106 0.00185382 0)
(3.00113 -0.00271334 0)
(2.99861 0.00208925 0)
(3.00164 -0.00262656 0)
(2.99881 0.00158007 0)
(3.00064 0.000651653 0)
(2.99799 9.86215e-05 0)
(3.00079 0.00127149 0)
(2.99761 -0.000590335 0)
(3.00203 0.00272872 0)
(3.00027 -0.00555893 0)
(3.00028 0.00564279 0)
(2.99847 -0.00516541 0)
(3.00249 0.0045802 0)
(2.99848 -0.00286585 0)
(2.99995 0.00421238 0)
(2.9999 -0.00316947 0)
(3.00364 -0.0085558 0)
(2.89102 0.22636 0)
(1.40094 0.488616 0)
(0.849309 0.511023 0)
(0.832793 0.531524 0)
(0.847095 0.492437 0)
(0.843573 0.571233 0)
(0.877542 0.547896 0)
(0.83688 0.585551 0)
(0.897561 0.595865 0)
(0.802918 0.604723 0)
(0.848965 0.590405 0)
(0.756061 0.605159 0)
(0.809672 0.601007 0)
(0.73676 0.687667 0)
(0.920114 0.783884 0)
(0.685123 0.71701 0)
(0.813678 0.750252 0)
(0.710832 0.831891 0)
(0.851897 0.785292 0)
(0.895321 1.04066 0)
(1.14298 0.986788 0)
(1.02203 1.04241 0)
(2.99881 0.000875373 0)
(3.00152 -0.00297437 0)
(2.99922 0.00384298 0)
(3.00055 -0.00539508 0)
(2.99899 0.00294161 0)
(3.00117 -0.00158935 0)
(2.99956 0.00276 0)
(3.0001 -0.00215684 0)
(3.00079 0.00331834 0)
(3.00089 -0.00521505 0)
(2.99965 0.00477041 0)
(2.99766 -0.00355638 0)
(3.0021 0.00106105 0)
(2.99831 -0.00216009 0)
(3.00102 0.000569234 0)
(2.99872 0.00107573 0)
(3.00167 -0.00049338 0)
(2.99821 0.00111735 0)
(3.00134 -0.000215141 0)
(3.00045 -0.000187501 0)
(2.9994 -0.000769324 0)
(2.99889 -0.000192993 0)
(3.00193 -0.000845403 0)
(2.99899 0.000486932 0)
(2.98451 0.0031774 0)
(3.01753 -0.00507375 0)
(3.39434 0.110586 0)
(2.2039 0.457259 0)
(0.960466 0.559628 0)
(0.931025 0.561872 0)
(0.912113 0.52127 0)
(0.80572 0.512327 0)
(0.890511 0.543174 0)
(0.778927 0.554327 0)
(0.862387 0.560803 0)
(0.807962 0.613071 0)
(0.882887 0.606395 0)
(0.801663 0.661679 0)
(0.885166 0.655084 0)
(0.730057 0.659999 0)
(0.937478 0.766118 0)
(0.820524 0.78799 0)
(0.86244 0.737756 0)
(0.838595 0.871784 0)
(0.873897 0.754121 0)
(0.87245 0.938159 0)
(1.15956 0.970156 0)
(1.07462 1.02667 0)
(2.9993 0.00101487 0)
(3.00068 0.000994853 0)
(2.99946 -0.000150781 0)
(3.00129 -0.00030784 0)
(2.99821 -0.00159015 0)
(3.00176 0.000858183 0)
(2.99754 0.000171262 0)
(3.00103 0.00134628 0)
(3.00052 -0.00223705 0)
(3.00121 0.000462255 0)
(2.99964 -0.00205514 0)
(2.99883 0.00299893 0)
(3.0014 -0.0042165 0)
(2.99769 0.00279661 0)
(3.00131 -0.00213622 0)
(2.99956 0.00119469 0)
(2.99943 -0.000524401 0)
(2.99972 0.000911723 0)
(2.99997 0.001383 0)
(3.00227 -0.00198821 0)
(2.99456 0.00271749 0)
(3.00265 -0.00212141 0)
(2.99354 0.00368322 0)
(3.00866 -0.00559172 0)
(2.99139 0.00528739 0)
(3.00791 0.00272188 0)
(3.06507 -0.128876 0)
(2.53891 0.304047 0)
(1.13178 0.589723 0)
(0.985913 0.590819 0)
(1.00915 0.621652 0)
(0.958113 0.608 0)
(0.925912 0.583502 0)
(0.870975 0.61238 0)
(0.904706 0.584195 0)
(0.803927 0.598567 0)
(0.892744 0.621607 0)
(0.755513 0.616757 0)
(0.926699 0.700218 0)
(0.763231 0.670763 0)
(0.911776 0.734816 0)
(0.902123 0.833344 0)
(0.961123 0.788841 0)
(0.944832 0.912928 0)
(1.023 0.821707 0)
(0.895151 0.878348 0)
(1.16618 0.90167 0)
(1.07364 0.956018 0)
(2.99871 -0.000372977 0)
(3.00179 0.00150282 0)
(2.99761 -0.00109543 0)
(3.00376 0.00199143 0)
(2.99549 -0.00212948 0)
(3.00293 0.00248415 0)
(2.99912 -0.00148718 0)
(3.00148 0.000980279 0)
(3.00023 0.000309378 0)
(2.99919 -0.00146438 0)
(2.99967 0.00107753 0)
(3.00078 -0.0019512 0)
(2.99812 0.00092475 0)
(3.00034 -0.00199621 0)
(3.00047 0.00174659 0)
(2.99987 -0.00265502 0)
(3.00131 0.00372302 0)
(2.99827 -0.00321597 0)
(3.0023 0.00352091 0)
(2.99895 -0.0030847 0)
(2.99991 0.00383949 0)
(2.99995 -0.00176142 0)
(3.00097 0.00364269 0)
(2.9983 -0.00133747 0)
(3.00123 -0.000319098 0)
(2.99878 0.00293968 0)
(2.96602 -0.0228508 0)
(2.66404 0.252613 0)
(1.23638 0.594574 0)
(0.882365 0.591926 0)
(0.892928 0.564862 0)
(0.896806 0.616375 0)
(0.933343 0.609928 0)
(0.891414 0.635779 0)
(0.955596 0.625018 0)
(0.836232 0.63987 0)
(0.946096 0.663701 0)
(0.804727 0.642632 0)
(0.929782 0.682954 0)
(0.841449 0.711159 0)
(0.860501 0.672497 0)
(0.880165 0.794486 0)
(0.950213 0.748812 0)
(0.973283 0.896676 0)
(1.10393 0.868387 0)
(1.01852 0.926136 0)
(1.20145 0.889743 0)
(1.10206 0.935269 0)
(2.99938 0.000561622 0)
(3.00022 0.00147832 0)
(3.00038 -0.00217043 0)
(3.00068 0.00190648 0)
(2.99965 -0.0026425 0)
(2.99895 0.00396786 0)
(3.00034 -0.00495513 0)
(2.99998 0.00451607 0)
(3.00149 -0.00309738 0)
(2.99901 0.0028064 0)
(3.00021 -0.00304663 0)
(2.99948 0.00167591 0)
(2.99904 -0.000459729 0)
(3.00099 -0.000508053 0)
(2.9985 0.00196251 0)
(3.00139 -0.00257159 0)
(2.99957 0.00383417 0)
(3.00032 -0.0036816 0)
(3.00044 0.00426216 0)
(2.99976 -0.00414591 0)
(3.00084 0.00267752 0)
(3.00002 -0.00321717 0)
(2.99976 0.0012482 0)
(2.99896 -0.000753862 0)
(2.99706 -0.00188913 0)
(2.98663 0.0088705 0)
(3.01404 -0.0113235 0)
(3.40684 0.259969 0)
(1.88607 0.626033 0)
(0.966344 0.598808 0)
(1.00382 0.600619 0)
(0.883151 0.573866 0)
(0.977685 0.621083 0)
(0.847157 0.588961 0)
(0.962507 0.637136 0)
(0.837363 0.624034 0)
(0.952123 0.670109 0)
(0.865647 0.663421 0)
(0.948787 0.695497 0)
(0.936438 0.76837 0)
(0.961856 0.733363 0)
(0.927667 0.800225 0)
(0.997767 0.753704 0)
(0.961295 0.837892 0)
(1.13047 0.847806 0)
(1.06286 0.911445 0)
(1.27279 0.899577 0)
(1.16246 0.920767 0)
(3.00137 -0.000302224 0)
(2.99807 0.00121601 0)
(3.00001 0.000452386 0)
(2.99952 -0.000714752 0)
(3.00132 0.000170871 0)
(2.99873 -0.00112749 0)
(3.00098 0.00192329 0)
(2.99966 0.000456509 0)
(3.0008 8.92998e-05 0)
(3.00251 -0.000244753 0)
(2.99528 0.00118982 0)
(3.0025 -0.00140583 0)
(2.99721 0.00127459 0)
(3.00301 -0.00133775 0)
(2.99812 0.00123591 0)
(3.00114 -0.000632669 0)
(3.00019 0.000311681 0)
(2.99978 -0.00113722 0)
(3.00051 0.00075733 0)
(2.99765 -0.00223181 0)
(3.00272 0.00215632 0)
(2.99851 -0.00312083 0)
(3.00116 0.00268018 0)
(2.99644 -0.00329809 0)
(3.00523 0.00151984 0)
(2.99132 -0.000298195 0)
(3.00733 0.00512117 0)
(3.05451 -0.125072 0)
(2.45313 0.420094 0)
(1.15625 0.654821 0)
(1.04689 0.651769 0)
(1.02707 0.674479 0)